 DBCSR| CPU Multiplication driver                                           BLAS (U)
 DBCSR| Multrec recursion limit                                              512 (U)
 DBCSR| Multiplication stack size                                           1000 (D)
 DBCSR| Maximum elements for images                                    UNLIMITED (U)
 DBCSR| Multiplicative factor virtual images                                   1 (U)
 DBCSR| Use multiplication densification                                       T (D)
 DBCSR| Multiplication size stacks                                             3 (U)
 DBCSR| Use memory pool for CPU allocation                                     F (U)
 DBCSR| OMP: Current number of threads                                         1
 DBCSR| OMP: Max number of threads                                             1
 DBCSR| Split modifier for TAS multiplication algorithm                  1.0E+00 (U)


  **** **** ******  **  PROGRAM STARTED AT               2023-04-01 17:52:19.790
 ***** ** ***  *** **   PROGRAM STARTED ON                           eu-g5-025-1
 **    ****   ******    PROGRAM STARTED BY                               fcambie
 ***** **    ** ** **   PROGRAM PROCESS ID                                 31611
  **** **  *******  **  PROGRAM STARTED IN /cluster/home/fcambie/exercise6/tripl
                                           et_mol/diffs/o2

 CP2K| version string:                 CP2K version 2023.1 (Development Version)
 CP2K| source code revision number:                                  git:dc34ec9
 CP2K| cp2kflags: omp libint fftw3 libxc max_contr=4 spglib libvori libbqb      
 CP2K| is freely available from                            https://www.cp2k.org/
 CP2K| Program compiled at                         Mon Mar 27 23:22:21 CEST 2023
 CP2K| Program compiled on                                           eu-g5-025-4
 CP2K| Program compiled for                              Linux-gnu-x86_64-static
 CP2K| Data directory path                   /cluster/scratch/danielep/cp2k/data
 CP2K| Input file name                                               triplet.inp

 GLOBAL| Force Environment number                                              1
 GLOBAL| Basis set file name            /cluster/apps/nss/gcc-6.3.0/cp2k/8.2/x86
 GLOBAL| Potential file name            /cluster/apps/nss/gcc-6.3.0/cp2k/8.2/x86
 GLOBAL| MM Potential file name                                     MM_POTENTIAL
 GLOBAL| Coordinate file name                                      __STD_INPUT__
 GLOBAL| Method name                                                        CP2K
 GLOBAL| Project name                                                         o2
 GLOBAL| Run type                                                         ENERGY
 GLOBAL| FFT library                                                       FFTW3
 GLOBAL| Diagonalization library                                       ScaLAPACK
 GLOBAL| DGEMM library                                                      BLAS
 GLOBAL| Orthonormality check for eigenvectors                          DISABLED
 GLOBAL| Matrix multiplication library                                 ScaLAPACK
 GLOBAL| All-to-all communication in single precision                          F
 GLOBAL| FFTs using library dependent lengths                                  F
 GLOBAL| Grid backend                                                       AUTO
 GLOBAL| Global print level                                                  LOW
 GLOBAL| MPI I/O enabled                                                       T
 GLOBAL| Total number of message passing processes                             1
 GLOBAL| Number of threads for this process                                    1
 GLOBAL| This output is from process                                           0
 GLOBAL| Stack size for threads created by OpenMP (OMP_STACKSIZE)        default
 GLOBAL| CPU model name                          AMD EPYC 7742 64-Core Processor

 MEMORY| system memory details [Kb]
 MEMORY|                        rank 0           min           max       average
 MEMORY| MemTotal            525874016     525874016     525874016     525874016
 MEMORY| MemFree             286265528     286265528     286265528     286265528
 MEMORY| Buffers                     0             0             0             0
 MEMORY| Cached               87128832      87128832      87128832      87128832
 MEMORY| Slab                  2697524       2697524       2697524       2697524
 MEMORY| SReclaimable          1511028       1511028       1511028       1511028
 MEMORY| MemLikelyFree       374905388     374905388     374905388     374905388


 GENERATE|  Preliminary Number of Bonds generated:                             0
 GENERATE|  Achieved consistency in connectivity generation.

 *******************************************************************************
 *******************************************************************************
 **                                                                           **
 **     #####                         ##              ##                      **
 **    ##   ##            ##          ##              ##                      **
 **   ##     ##                       ##            ######                    **
 **   ##     ##  ##   ##  ##   #####  ##  ##   ####   ##    #####    #####    **
 **   ##     ##  ##   ##  ##  ##      ## ##   ##      ##   ##   ##  ##   ##   **
 **   ##  ## ##  ##   ##  ##  ##      ####     ###    ##   ######   ######    **
 **    ##  ###   ##   ##  ##  ##      ## ##      ##   ##   ##       ##        **
 **     #######   #####   ##   #####  ##  ##  ####    ##    #####   ##        **
 **           ##                                                    ##        **
 **                                                                           **
 **                                                ... make the atoms dance   **
 **                                                                           **
 **            Copyright (C) by CP2K developers group (2000-2023)             **
 **                      J. Chem. Phys. 152, 194103 (2020)                    **
 **                                                                           **
 *******************************************************************************


 TOTAL NUMBERS AND MAXIMUM NUMBERS

  Total number of            - Atomic kinds:                                   1
                             - Atoms:                                          1
                             - Shell sets:                                    13
                             - Shells:                                        14
                             - Primitive Cartesian functions:                 22
                             - Cartesian basis functions:                     55
                             - Spherical basis functions:                     46

  Maximum angular momentum of the orbital basis functions:                     3


 SCF PARAMETERS         Density guess:                                   RESTART
                        --------------------------------------------------------
                        max_scf:                                            2000
                        max_scf_history:                                       0
                        max_diis:                                              4
                        --------------------------------------------------------
                        eps_scf:                                        1.00E-06
                        eps_scf_history:                                0.00E+00
                        eps_diis:                                       1.00E-01
                        eps_eigval:                                     1.00E-05
                        --------------------------------------------------------
                        level_shift [a.u.]:                             0.000000
                        added MOs                                         6    6
                        --------------------------------------------------------
                        Mixing method:                           DIRECT_P_MIXING
                        --------------------------------------------------------
                        No outer SCF

 Spin 1

 Number of electrons:                                                          5
 Number of occupied orbitals:                                                  5
 Number of molecular orbitals:                                                11

 Spin 2

 Number of electrons:                                                          3
 Number of occupied orbitals:                                                  3
 Number of molecular orbitals:                                                 9

 Number of orbital functions:                                                 46
 Number of independent orbital functions:                                     46

 Extrapolation method: initial_guess

 *** WARNING in qs_initial_guess.F:305 :: User requested to restart the   ***
 *** wavefunction from the file named: o2-RESTART.wfn. This file does not ***
 *** exist. Please check the existence of the file or change properly the ***
 *** value of the keyword WFN_RESTART_FILE_NAME. Calculation continues    ***
 *** using ATOMIC GUESS.                                                  ***



 SCF WAVEFUNCTION OPTIMIZATION

  Step     Update method      Time    Convergence         Total energy    Change
  ------------------------------------------------------------------------------

 MO| ALPHA EIGENVALUES, OCCUPATION NUMBERS, AND SPHERICAL EIGENVECTORS AFTER SCF STEP 0
 MO|
 MO|                             1            2            3            4
 MO|                        -21.382814    -1.501450    -0.656118    -0.656118
 MO|
 MO|                          1.000000     1.000000     1.000000     1.000000
 MO|
 MO|    1     1  O  1s       -0.984549     0.001673    -0.000000    -0.000000
 MO|    2     1  O  2s       -0.008214     0.603990    -0.000000    -0.000000
 MO|    3     1  O  1s       -0.033209     0.182441    -0.000000    -0.000000
 MO|    4     1  O  1s        0.001510     0.339332    -0.000000    -0.000000
 MO|    5     1  O  1py      -0.000000     0.000000     0.280977     0.279588
 MO|    6     1  O  1pz      -0.000000     0.000003    -0.000000    -0.000000
 MO|    7     1  O  1px      -0.000000     0.000000    -0.279588     0.280977
 MO|    8     1  O  1py       0.000000     0.000000     0.350415     0.348683
 MO|    9     1  O  1pz       0.000000    -0.000005    -0.000000    -0.000000
 MO|   10     1  O  1px       0.000000     0.000000    -0.348683     0.350415
 MO|   11     1  O  1py      -0.000000     0.000000     0.222135     0.221037
 MO|   12     1  O  1pz      -0.000000     0.000017    -0.000000    -0.000000
 MO|   13     1  O  1px      -0.000000     0.000000    -0.221037     0.222135
 MO|   14     1  O  1d-2      0.000000     0.000000     0.000000     0.000000
 MO|   15     1  O  1d-1      0.000000     0.000000     0.000000     0.000000
 MO|   16     1  O  1d0       0.000000    -0.000005    -0.000000    -0.000000
 MO|   17     1  O  1d+1      0.000000     0.000000    -0.000000     0.000000
 MO|   18     1  O  1d+2      0.000000    -0.000000    -0.000000     0.000000
 MO|   19     1  O  1d-2     -0.000000     0.000000     0.000000     0.000000
 MO|   20     1  O  1d-1     -0.000000     0.000000    -0.000000    -0.000000
 MO|   21     1  O  1d0       0.000000     0.000023    -0.000000    -0.000000
 MO|   22     1  O  1d+1     -0.000000     0.000000     0.000000    -0.000000
 MO|   23     1  O  1d+2     -0.000000     0.000000    -0.000000     0.000000
 MO|   24     1  O  1f-3      0.000000     0.000000     0.000000     0.000000
 MO|   25     1  O  1f-2     -0.000000     0.000000     0.000000    -0.000000
 MO|   26     1  O  1f-1      0.000000     0.000000    -0.000000    -0.000000
 MO|   27     1  O  1f0       0.000000    -0.000000    -0.000000     0.000000
 MO|   28     1  O  1f+1      0.000000     0.000000     0.000000    -0.000000
 MO|   29     1  O  1f+2     -0.000000    -0.000000    -0.000000     0.000000
 MO|   30     1  O  1f+3     -0.000000    -0.000000     0.000000    -0.000000
 MO|   31     1  O  1s       -0.000770     0.001430     0.000000     0.000000
 MO|   32     1  O  1py       0.000000     0.000000     0.013989     0.013920
 MO|   33     1  O  1pz      -0.000000    -0.000009    -0.000000    -0.000000
 MO|   34     1  O  1px       0.000000     0.000000    -0.013920     0.013989
 MO|   35     1  O  1d-2      0.000000    -0.000000     0.000000     0.000000
 MO|   36     1  O  1d-1      0.000000     0.000000     0.000001     0.000001
 MO|   37     1  O  1d0      -0.000000    -0.000046    -0.000000    -0.000000
 MO|   38     1  O  1d+1      0.000000     0.000000    -0.000001     0.000001
 MO|   39     1  O  1d+2      0.000000     0.000000    -0.000000     0.000000
 MO|   40     1  O  1f-3     -0.000000    -0.000000    -0.000000    -0.000000
 MO|   41     1  O  1f-2      0.000000    -0.000000    -0.000000     0.000000
 MO|   42     1  O  1f-1     -0.000000    -0.000000    -0.000000    -0.000000
 MO|   43     1  O  1f0      -0.000000    -0.000000     0.000000     0.000000
 MO|   44     1  O  1f+1     -0.000000    -0.000000     0.000000    -0.000000
 MO|   45     1  O  1f+2      0.000000    -0.000000     0.000000     0.000000
 MO|   46     1  O  1f+3     -0.000000     0.000000    -0.000000     0.000000
 MO|
 MO|                             5            6            7            8
 MO|                         -0.656096     0.150472     0.155375     0.155375
 MO|
 MO|                          1.000000     0.000000     0.000000     0.000000
 MO|
 MO|    1     1  O  1s        0.000016    -0.049978    -0.000000     0.000000
 MO|    2     1  O  2s        0.000035     0.059115     0.000000    -0.000000
 MO|    3     1  O  1s       -0.000000     0.055743     0.000000    -0.000000
 MO|    4     1  O  1s       -0.000054     0.864742     0.000000    -0.000000
 MO|    5     1  O  1py      -0.000000     0.000000     0.068519     0.071100
 MO|    6     1  O  1pz      -0.396379     0.000208     0.000000    -0.000000
 MO|    7     1  O  1px      -0.000000     0.000000    -0.071100     0.068519
 MO|    8     1  O  1py      -0.000000     0.000000     0.042721     0.044330
 MO|    9     1  O  1pz      -0.494415     0.000068     0.000000    -0.000000
 MO|   10     1  O  1px      -0.000000     0.000000    -0.044330     0.042721
 MO|   11     1  O  1py      -0.000000     0.000000     0.247944     0.257285
 MO|   12     1  O  1pz      -0.313233     0.000914     0.000000    -0.000000
 MO|   13     1  O  1px      -0.000000     0.000000    -0.257285     0.247944
 MO|   14     1  O  1d-2      0.000000     0.000000     0.000000    -0.000000
 MO|   15     1  O  1d-1     -0.000000    -0.000000     0.000000     0.000000
 MO|   16     1  O  1d0       0.000004    -0.000025    -0.000000     0.000000
 MO|   17     1  O  1d+1     -0.000000    -0.000000    -0.000000     0.000000
 MO|   18     1  O  1d+2      0.000000    -0.000000     0.000000     0.000000
 MO|   19     1  O  1d-2      0.000000    -0.000000    -0.000000     0.000000
 MO|   20     1  O  1d-1     -0.000000     0.000000    -0.000001    -0.000001
 MO|   21     1  O  1d0      -0.000023     0.000123     0.000000    -0.000000
 MO|   22     1  O  1d+1     -0.000000     0.000000     0.000001    -0.000001
 MO|   23     1  O  1d+2     -0.000000     0.000000    -0.000000    -0.000000
 MO|   24     1  O  1f-3      0.000000    -0.000000     0.000000     0.000000
 MO|   25     1  O  1f-2      0.000000     0.000000     0.000000    -0.000000
 MO|   26     1  O  1f-1     -0.000000    -0.000000    -0.000000    -0.000000
 MO|   27     1  O  1f0       0.000000    -0.000000     0.000000     0.000000
 MO|   28     1  O  1f+1     -0.000000    -0.000000     0.000000    -0.000000
 MO|   29     1  O  1f+2     -0.000000    -0.000000    -0.000000    -0.000000
 MO|   30     1  O  1f+3     -0.000000     0.000000     0.000000    -0.000000
 MO|   31     1  O  1s        0.000038    -1.510296    -0.000000     0.000000
 MO|   32     1  O  1py      -0.000000    -0.000000    -0.811599    -0.842174
 MO|   33     1  O  1pz      -0.019822    -0.002678    -0.000000     0.000000
 MO|   34     1  O  1px      -0.000000    -0.000000     0.842174    -0.811599
 MO|   35     1  O  1d-2     -0.000000     0.000000     0.000000    -0.000000
 MO|   36     1  O  1d-1     -0.000000    -0.000000     0.000002     0.000002
 MO|   37     1  O  1d0       0.000066    -0.000443    -0.000000     0.000000
 MO|   38     1  O  1d+1     -0.000000    -0.000000    -0.000002     0.000002
 MO|   39     1  O  1d+2     -0.000000    -0.000000     0.000000     0.000000
 MO|   40     1  O  1f-3     -0.000000     0.000000    -0.000000    -0.000000
 MO|   41     1  O  1f-2     -0.000000    -0.000000     0.000000    -0.000000
 MO|   42     1  O  1f-1      0.000000     0.000000    -0.000000    -0.000000
 MO|   43     1  O  1f0       0.000001    -0.000000    -0.000000     0.000000
 MO|   44     1  O  1f+1      0.000000     0.000000     0.000000    -0.000000
 MO|   45     1  O  1f+2     -0.000000     0.000000     0.000000    -0.000000
 MO|   46     1  O  1f+3      0.000000    -0.000000    -0.000000     0.000000
 MO|
 MO|                             9           10           11
 MO|                          0.155403     0.628070     0.628104
 MO|
 MO|                          0.000000     0.000000     0.000000
 MO|
 MO|    1     1  O  1s       -0.000086    -0.000000     0.000000
 MO|    2     1  O  2s        0.000196    -0.000000     0.000000
 MO|    3     1  O  1s        0.000129     0.000000     0.000000
 MO|    4     1  O  1s        0.001855     0.000000    -0.000000
 MO|    5     1  O  1py      -0.000000     0.000000     0.000005
 MO|    6     1  O  1pz      -0.098777    -0.000000     0.000000
 MO|    7     1  O  1px      -0.000000     0.000000     0.000000
 MO|    8     1  O  1py      -0.000000     0.000000     0.000018
 MO|    9     1  O  1pz      -0.061740    -0.000000     0.000000
 MO|   10     1  O  1px      -0.000000     0.000000     0.000000
 MO|   11     1  O  1py      -0.000000    -0.000000    -0.000032
 MO|   12     1  O  1pz      -0.357037     0.000000    -0.000000
 MO|   13     1  O  1px      -0.000000    -0.000000    -0.000000
 MO|   14     1  O  1d-2      0.000000    -0.041316     0.000000
 MO|   15     1  O  1d-1      0.000000    -0.000000    -0.041314
 MO|   16     1  O  1d0       0.000010    -0.000000     0.000000
 MO|   17     1  O  1d+1      0.000000    -0.000000    -0.000000
 MO|   18     1  O  1d+2     -0.000000     0.000000     0.000000
 MO|   19     1  O  1d-2      0.000000     0.104938    -0.000000
 MO|   20     1  O  1d-1     -0.000000     0.000000     0.104918
 MO|   21     1  O  1d0      -0.000052     0.000000    -0.000000
 MO|   22     1  O  1d+1     -0.000000     0.000000     0.000000
 MO|   23     1  O  1d+2     -0.000000    -0.000000    -0.000000
 MO|   24     1  O  1f-3      0.000000     0.000000     0.000000
 MO|   25     1  O  1f-2      0.000000    -0.000000     0.000000
 MO|   26     1  O  1f-1     -0.000000    -0.000000     0.000000
 MO|   27     1  O  1f0       0.000000     0.000000    -0.000000
 MO|   28     1  O  1f+1     -0.000000    -0.000000     0.000000
 MO|   29     1  O  1f+2     -0.000000     0.000000    -0.000000
 MO|   30     1  O  1f+3     -0.000000    -0.000000     0.000000
 MO|   31     1  O  1s       -0.003361    -0.000000     0.000000
 MO|   32     1  O  1py       0.000000     0.000000     0.000011
 MO|   33     1  O  1pz       1.169473    -0.000000     0.000000
 MO|   34     1  O  1px       0.000000     0.000000     0.000000
 MO|   35     1  O  1d-2     -0.000000    -1.055380     0.000000
 MO|   36     1  O  1d-1      0.000000    -0.000000    -1.055369
 MO|   37     1  O  1d0       0.000191    -0.000000     0.000000
 MO|   38     1  O  1d+1      0.000000    -0.000000    -0.000000
 MO|   39     1  O  1d+2     -0.000000     0.000000     0.000000
 MO|   40     1  O  1f-3     -0.000000    -0.000000    -0.000000
 MO|   41     1  O  1f-2     -0.000000     0.000000    -0.000000
 MO|   42     1  O  1f-1      0.000000     0.000000     0.000000
 MO|   43     1  O  1f0       0.000000     0.000000     0.000000
 MO|   44     1  O  1f+1      0.000000     0.000000     0.000000
 MO|   45     1  O  1f+2     -0.000000    -0.000000     0.000000
 MO|   46     1  O  1f+3      0.000000     0.000000    -0.000000
 MO|
 MO| E(Fermi):           -0.656096 a.u.        -17.853286 eV
 MO| Band gap:            0.806568 a.u.         21.947825 eV


 MO| BETA EIGENVALUES, OCCUPATION NUMBERS, AND SPHERICAL EIGENVECTORS AFTER SCF STEP 0
 MO|
 MO|                             1            2            3            4
 MO|                        -20.105420    -1.037118    -0.177917    -0.177917
 MO|
 MO|                          1.000000     1.000000     1.000000     0.000000
 MO|
 MO|    1     1  O  1s        0.968109    -0.003980     0.000000     0.000000
 MO|    2     1  O  2s       -0.009085     0.562065    -0.000000    -0.000000
 MO|    3     1  O  1s        0.052351     0.147715    -0.000000    -0.000000
 MO|    4     1  O  1s        0.007731     0.396331    -0.000000    -0.000000
 MO|    5     1  O  1py       0.000000     0.000000     0.233559     0.230127
 MO|    6     1  O  1pz       0.000000     0.000003     0.000000    -0.000000
 MO|    7     1  O  1px       0.000000     0.000000    -0.230127     0.233559
 MO|    8     1  O  1py      -0.000000     0.000000     0.296716     0.292356
 MO|    9     1  O  1pz      -0.000000    -0.000008     0.000000    -0.000000
 MO|   10     1  O  1px      -0.000000     0.000000    -0.292356     0.296716
 MO|   11     1  O  1py       0.000000     0.000000     0.285809     0.281610
 MO|   12     1  O  1pz       0.000000     0.000024     0.000000    -0.000000
 MO|   13     1  O  1px       0.000000     0.000000    -0.281610     0.285809
 MO|   14     1  O  1d-2     -0.000000     0.000000     0.000000     0.000000
 MO|   15     1  O  1d-1     -0.000000     0.000000     0.000000     0.000000
 MO|   16     1  O  1d0      -0.000000    -0.000006    -0.000000    -0.000000
 MO|   17     1  O  1d+1     -0.000000     0.000000    -0.000000     0.000000
 MO|   18     1  O  1d+2     -0.000000    -0.000000    -0.000000     0.000000
 MO|   19     1  O  1d-2      0.000000     0.000000     0.000000     0.000000
 MO|   20     1  O  1d-1      0.000000     0.000000    -0.000000    -0.000000
 MO|   21     1  O  1d0       0.000000     0.000031     0.000000    -0.000000
 MO|   22     1  O  1d+1      0.000000     0.000000     0.000000    -0.000000
 MO|   23     1  O  1d+2      0.000000    -0.000000    -0.000000     0.000000
 MO|   24     1  O  1f-3      0.000000     0.000000     0.000000     0.000000
 MO|   25     1  O  1f-2     -0.000000    -0.000000    -0.000000    -0.000000
 MO|   26     1  O  1f-1     -0.000000     0.000000    -0.000000    -0.000000
 MO|   27     1  O  1f0      -0.000000    -0.000000     0.000000     0.000000
 MO|   28     1  O  1f+1      0.000000     0.000000     0.000000    -0.000000
 MO|   29     1  O  1f+2     -0.000000     0.000000    -0.000000    -0.000000
 MO|   30     1  O  1f+3     -0.000000    -0.000000     0.000000    -0.000000
 MO|   31     1  O  1s       -0.002150     0.021167     0.000000     0.000000
 MO|   32     1  O  1py      -0.000000     0.000000     0.103308     0.101790
 MO|   33     1  O  1pz      -0.000000    -0.000013     0.000000    -0.000000
 MO|   34     1  O  1px      -0.000000     0.000000    -0.101790     0.103308
 MO|   35     1  O  1d-2     -0.000000    -0.000000     0.000000     0.000000
 MO|   36     1  O  1d-1     -0.000000     0.000000     0.000001     0.000001
 MO|   37     1  O  1d0      -0.000000    -0.000067    -0.000000    -0.000000
 MO|   38     1  O  1d+1     -0.000000     0.000000    -0.000001     0.000001
 MO|   39     1  O  1d+2      0.000000     0.000000    -0.000000     0.000000
 MO|   40     1  O  1f-3     -0.000000    -0.000000    -0.000000    -0.000000
 MO|   41     1  O  1f-2      0.000000     0.000000     0.000000     0.000000
 MO|   42     1  O  1f-1      0.000000    -0.000000    -0.000000    -0.000000
 MO|   43     1  O  1f0       0.000000    -0.000000    -0.000000    -0.000000
 MO|   44     1  O  1f+1     -0.000000    -0.000000     0.000000    -0.000000
 MO|   45     1  O  1f+2      0.000000    -0.000000     0.000000    -0.000000
 MO|   46     1  O  1f+3      0.000000     0.000000    -0.000000     0.000000
 MO|
 MO|                             5            6            7            8
 MO|                         -0.177881     0.166781     0.174293     0.174293
 MO|
 MO|                          0.000000     0.000000     0.000000     0.000000
 MO|
 MO|    1     1  O  1s        0.000026    -0.060808    -0.000000     0.000000
 MO|    2     1  O  2s        0.000055     0.044265     0.000000    -0.000000
 MO|    3     1  O  1s       -0.000001     0.045095     0.000000    -0.000000
 MO|    4     1  O  1s       -0.000109     0.950206     0.000000    -0.000000
 MO|    5     1  O  1py      -0.000000     0.000000     0.096016     0.097177
 MO|    6     1  O  1pz      -0.327879     0.000281    -0.000000    -0.000000
 MO|    7     1  O  1px      -0.000000     0.000000    -0.097177     0.096016
 MO|    8     1  O  1py      -0.000000     0.000000     0.072635     0.073513
 MO|    9     1  O  1pz      -0.416669     0.000144    -0.000000    -0.000000
 MO|   10     1  O  1px      -0.000000     0.000000    -0.073513     0.072635
 MO|   11     1  O  1py      -0.000000     0.000000     0.342600     0.346743
 MO|   12     1  O  1pz      -0.400976     0.001179    -0.000000    -0.000000
 MO|   13     1  O  1px      -0.000000     0.000000    -0.346743     0.342600
 MO|   14     1  O  1d-2      0.000000     0.000000     0.000000    -0.000000
 MO|   15     1  O  1d-1     -0.000000    -0.000000     0.000000     0.000000
 MO|   16     1  O  1d0       0.000008    -0.000027    -0.000000     0.000000
 MO|   17     1  O  1d+1     -0.000000    -0.000000    -0.000000     0.000000
 MO|   18     1  O  1d+2     -0.000000    -0.000000     0.000000     0.000000
 MO|   19     1  O  1d-2     -0.000000    -0.000000    -0.000000     0.000000
 MO|   20     1  O  1d-1     -0.000000     0.000000    -0.000001    -0.000001
 MO|   21     1  O  1d0      -0.000042     0.000141     0.000000    -0.000000
 MO|   22     1  O  1d+1     -0.000000     0.000000     0.000001    -0.000001
 MO|   23     1  O  1d+2     -0.000000     0.000000    -0.000000    -0.000000
 MO|   24     1  O  1f-3      0.000000    -0.000000     0.000000     0.000000
 MO|   25     1  O  1f-2      0.000000    -0.000000    -0.000000    -0.000000
 MO|   26     1  O  1f-1     -0.000000    -0.000000    -0.000000    -0.000000
 MO|   27     1  O  1f0       0.000000    -0.000000     0.000000     0.000000
 MO|   28     1  O  1f+1     -0.000000    -0.000000     0.000000    -0.000000
 MO|   29     1  O  1f+2      0.000000    -0.000000    -0.000000    -0.000000
 MO|   30     1  O  1f+3     -0.000000     0.000000     0.000000    -0.000000
 MO|   31     1  O  1s        0.000094    -1.539517    -0.000000     0.000000
 MO|   32     1  O  1py      -0.000000    -0.000000    -0.833778    -0.843861
 MO|   33     1  O  1pz      -0.145255    -0.002695     0.000000     0.000000
 MO|   34     1  O  1px      -0.000000    -0.000000     0.843861    -0.833778
 MO|   35     1  O  1d-2      0.000000     0.000000     0.000000    -0.000000
 MO|   36     1  O  1d-1     -0.000000    -0.000000     0.000003     0.000003
 MO|   37     1  O  1d0       0.000131    -0.000491    -0.000000     0.000000
 MO|   38     1  O  1d+1     -0.000000    -0.000000    -0.000003     0.000003
 MO|   39     1  O  1d+2     -0.000000    -0.000000     0.000000     0.000000
 MO|   40     1  O  1f-3     -0.000000     0.000000    -0.000000    -0.000000
 MO|   41     1  O  1f-2     -0.000000     0.000000    -0.000000     0.000000
 MO|   42     1  O  1f-1      0.000000     0.000000    -0.000000    -0.000000
 MO|   43     1  O  1f0       0.000001    -0.000000    -0.000000     0.000000
 MO|   44     1  O  1f+1      0.000000     0.000000     0.000000    -0.000000
 MO|   45     1  O  1f+2      0.000000     0.000000     0.000000     0.000000
 MO|   46     1  O  1f+3      0.000000    -0.000000    -0.000000     0.000000
 MO|
 MO|                             9
 MO|                          0.174345
 MO|
 MO|                          0.000000
 MO|
 MO|    1     1  O  1s       -0.000100
 MO|    2     1  O  2s        0.000184
 MO|    3     1  O  1s        0.000104
 MO|    4     1  O  1s        0.002006
 MO|    5     1  O  1py      -0.000000
 MO|    6     1  O  1pz      -0.136681
 MO|    7     1  O  1px      -0.000000
 MO|    8     1  O  1py      -0.000000
 MO|    9     1  O  1pz      -0.103609
 MO|   10     1  O  1px      -0.000000
 MO|   11     1  O  1py      -0.000000
 MO|   12     1  O  1pz      -0.487158
 MO|   13     1  O  1px      -0.000000
 MO|   14     1  O  1d-2     -0.000000
 MO|   15     1  O  1d-1      0.000000
 MO|   16     1  O  1d0       0.000014
 MO|   17     1  O  1d+1      0.000000
 MO|   18     1  O  1d+2     -0.000000
 MO|   19     1  O  1d-2     -0.000000
 MO|   20     1  O  1d-1     -0.000000
 MO|   21     1  O  1d0      -0.000074
 MO|   22     1  O  1d+1     -0.000000
 MO|   23     1  O  1d+2     -0.000000
 MO|   24     1  O  1f-3      0.000000
 MO|   25     1  O  1f-2      0.000000
 MO|   26     1  O  1f-1     -0.000000
 MO|   27     1  O  1f0       0.000000
 MO|   28     1  O  1f+1     -0.000000
 MO|   29     1  O  1f+2      0.000000
 MO|   30     1  O  1f+3     -0.000000
 MO|   31     1  O  1s       -0.003388
 MO|   32     1  O  1py       0.000000
 MO|   33     1  O  1pz       1.186138
 MO|   34     1  O  1px       0.000000
 MO|   35     1  O  1d-2      0.000000
 MO|   36     1  O  1d-1      0.000000
 MO|   37     1  O  1d0       0.000265
 MO|   38     1  O  1d+1      0.000000
 MO|   39     1  O  1d+2      0.000000
 MO|   40     1  O  1f-3     -0.000000
 MO|   41     1  O  1f-2     -0.000000
 MO|   42     1  O  1f-1      0.000000
 MO|   43     1  O  1f0       0.000000
 MO|   44     1  O  1f+1      0.000000
 MO|   45     1  O  1f+2     -0.000000
 MO|   46     1  O  1f+3      0.000000
 MO|
 MO| E(Fermi):           -0.177917 a.u.         -4.841357 eV
 MO| Band gap:            0.000000 a.u.          0.000000 eV

     1 P_Mix/Diag. 0.10E+00    4.7     0.14523177       -73.9019634716 -7.39E+01

 MO| ALPHA EIGENVALUES, OCCUPATION NUMBERS, AND SPHERICAL EIGENVECTORS AFTER SCF STEP 1
 MO|
 MO|                             1            2            3            4
 MO|                        -21.326724    -1.498769    -0.665708    -0.665688
 MO|
 MO|                          1.000000     1.000000     1.000000     1.000000
 MO|
 MO|    1     1  O  1s       -0.983662    -0.002098     0.000000     0.000016
 MO|    2     1  O  2s       -0.007408    -0.605370     0.000000     0.000035
 MO|    3     1  O  1s       -0.034303    -0.182004     0.000000    -0.000000
 MO|    4     1  O  1s        0.001012    -0.338351     0.000000    -0.000055
 MO|    5     1  O  1py      -0.000000    -0.000000    -0.278691    -0.000000
 MO|    6     1  O  1pz      -0.000000    -0.000003     0.000000    -0.397076
 MO|    7     1  O  1px      -0.000000    -0.000000    -0.282846    -0.000000
 MO|    8     1  O  1py       0.000000    -0.000000    -0.348161    -0.000000
 MO|    9     1  O  1pz       0.000000     0.000006     0.000000    -0.496136
 MO|   10     1  O  1px       0.000000    -0.000000    -0.353352    -0.000000
 MO|   11     1  O  1py      -0.000000    -0.000000    -0.218268    -0.000000
 MO|   12     1  O  1pz      -0.000000    -0.000017     0.000000    -0.310848
 MO|   13     1  O  1px      -0.000000    -0.000000    -0.221523    -0.000000
 MO|   14     1  O  1d-2     -0.000040    -0.000478    -0.000000     0.000000
 MO|   15     1  O  1d-1      0.000000     0.000000    -0.000000    -0.000000
 MO|   16     1  O  1d0      -0.000023    -0.000271     0.000000     0.000004
 MO|   17     1  O  1d+1      0.000000    -0.000000    -0.000000    -0.000000
 MO|   18     1  O  1d+2     -0.000001    -0.000007    -0.000000     0.000000
 MO|   19     1  O  1d-2      0.000016    -0.000924    -0.000000     0.000000
 MO|   20     1  O  1d-1     -0.000000     0.000000     0.000000    -0.000000
 MO|   21     1  O  1d0       0.000009    -0.000556     0.000000    -0.000023
 MO|   22     1  O  1d+1     -0.000000    -0.000000     0.000000    -0.000000
 MO|   23     1  O  1d+2      0.000000    -0.000014    -0.000000     0.000000
 MO|   24     1  O  1f-3     -0.000000    -0.000000    -0.000314    -0.000000
 MO|   25     1  O  1f-2     -0.000000    -0.000000     0.000000    -0.000354
 MO|   26     1  O  1f-1      0.000000    -0.000000    -0.000079    -0.000000
 MO|   27     1  O  1f0       0.000000     0.000000     0.000000    -0.000274
 MO|   28     1  O  1f+1      0.000000    -0.000000    -0.000080    -0.000000
 MO|   29     1  O  1f+2     -0.000000    -0.000000     0.000000    -0.000005
 MO|   30     1  O  1f+3      0.000000     0.000000     0.000300     0.000000
 MO|   31     1  O  1s       -0.000617    -0.001188    -0.000000     0.000038
 MO|   32     1  O  1py       0.000000    -0.000000    -0.012985    -0.000000
 MO|   33     1  O  1pz       0.000000     0.000009     0.000000    -0.018588
 MO|   34     1  O  1px       0.000000    -0.000000    -0.013179    -0.000000
 MO|   35     1  O  1d-2     -0.000006    -0.000076    -0.000000    -0.000000
 MO|   36     1  O  1d-1      0.000000     0.000000    -0.000001    -0.000000
 MO|   37     1  O  1d0      -0.000004     0.000003     0.000000     0.000067
 MO|   38     1  O  1d+1      0.000000    -0.000000    -0.000001    -0.000000
 MO|   39     1  O  1d+2     -0.000000    -0.000001    -0.000000    -0.000000
 MO|   40     1  O  1f-3      0.000000     0.000000    -0.000305    -0.000000
 MO|   41     1  O  1f-2      0.000000    -0.000000     0.000000    -0.000345
 MO|   42     1  O  1f-1     -0.000000     0.000000    -0.000076    -0.000000
 MO|   43     1  O  1f0       0.000000     0.000000     0.000000    -0.000266
 MO|   44     1  O  1f+1     -0.000000     0.000000    -0.000077    -0.000000
 MO|   45     1  O  1f+2      0.000000    -0.000000     0.000000    -0.000005
 MO|   46     1  O  1f+3     -0.000000    -0.000000     0.000292     0.000000
 MO|
 MO|                             5            6            7            8
 MO|                         -0.658573     0.150462     0.154855     0.154882
 MO|
 MO|                          1.000000     0.000000     0.000000     0.000000
 MO|
 MO|    1     1  O  1s       -0.000000     0.049818     0.000000     0.000099
 MO|    2     1  O  2s       -0.000000    -0.059230    -0.000000    -0.000212
 MO|    3     1  O  1s       -0.000000    -0.055547    -0.000000    -0.000143
 MO|    4     1  O  1s       -0.000000    -0.864066    -0.000000    -0.002082
 MO|    5     1  O  1py       0.282661    -0.000000     0.068885     0.000000
 MO|    6     1  O  1pz       0.000000    -0.000232    -0.000000     0.098182
 MO|    7     1  O  1px      -0.278508    -0.000000     0.069912     0.000000
 MO|    8     1  O  1py       0.352693    -0.000000     0.042991     0.000000
 MO|    9     1  O  1pz       0.000000    -0.000083    -0.000000     0.061428
 MO|   10     1  O  1px      -0.347512    -0.000000     0.043632     0.000000
 MO|   11     1  O  1py       0.222371    -0.000000     0.249198     0.000000
 MO|   12     1  O  1pz       0.000000    -0.001004    -0.000000     0.354780
 MO|   13     1  O  1px      -0.219104    -0.000000     0.252913     0.000000
 MO|   14     1  O  1d-2      0.000000    -0.000068    -0.000000    -0.000000
 MO|   15     1  O  1d-1      0.000000     0.000000     0.000000    -0.000000
 MO|   16     1  O  1d0      -0.000000    -0.000015     0.000000    -0.000010
 MO|   17     1  O  1d+1     -0.000000     0.000000     0.000000    -0.000000
 MO|   18     1  O  1d+2     -0.000000    -0.000001    -0.000000    -0.000000
 MO|   19     1  O  1d-2      0.000000    -0.000535     0.000000    -0.000001
 MO|   20     1  O  1d-1     -0.000000    -0.000000    -0.000001     0.000000
 MO|   21     1  O  1d0      -0.000000    -0.000431    -0.000000     0.000051
 MO|   22     1  O  1d+1      0.000000    -0.000000    -0.000001     0.000000
 MO|   23     1  O  1d+2     -0.000000    -0.000008    -0.000000    -0.000000
 MO|   24     1  O  1f-3     -0.000299    -0.000000     0.000098     0.000000
 MO|   25     1  O  1f-2      0.000000    -0.000000    -0.000000     0.000111
 MO|   26     1  O  1f-1      0.000239    -0.000000     0.000025     0.000000
 MO|   27     1  O  1f0       0.000000    -0.000000    -0.000000     0.000086
 MO|   28     1  O  1f+1     -0.000236    -0.000000     0.000025     0.000000
 MO|   29     1  O  1f+2     -0.000000    -0.000000     0.000000     0.000002
 MO|   30     1  O  1f+3     -0.000313     0.000000    -0.000094    -0.000000
 MO|   31     1  O  1s        0.000000     1.510098     0.000000     0.003758
 MO|   32     1  O  1py       0.013607     0.000000    -0.820454    -0.000000
 MO|   33     1  O  1pz       0.000000     0.002985     0.000000    -1.168857
 MO|   34     1  O  1px      -0.013407     0.000000    -0.832685    -0.000000
 MO|   35     1  O  1d-2      0.000000     0.002358    -0.000000     0.000006
 MO|   36     1  O  1d-1      0.000001     0.000000     0.000002    -0.000000
 MO|   37     1  O  1d0      -0.000000     0.001804     0.000000    -0.000185
 MO|   38     1  O  1d+1     -0.000001     0.000000     0.000002    -0.000000
 MO|   39     1  O  1d+2     -0.000000     0.000035     0.000000     0.000000
 MO|   40     1  O  1f-3     -0.000294     0.000000    -0.000096    -0.000000
 MO|   41     1  O  1f-2      0.000000     0.000000     0.000000    -0.000109
 MO|   42     1  O  1f-1      0.000234     0.000000    -0.000024    -0.000000
 MO|   43     1  O  1f0       0.000000     0.000000     0.000000    -0.000084
 MO|   44     1  O  1f+1     -0.000230     0.000000    -0.000025    -0.000000
 MO|   45     1  O  1f+2      0.000000     0.000000    -0.000000    -0.000002
 MO|   46     1  O  1f+3     -0.000307    -0.000000     0.000092     0.000000
 MO|
 MO|                             9           10           11
 MO|                          0.155885     0.626546     0.626951
 MO|
 MO|                          0.000000     0.000000     0.000000
 MO|
 MO|    1     1  O  1s       -0.000000    -0.000000    -0.000680
 MO|    2     1  O  2s        0.000000    -0.000000    -0.001773
 MO|    3     1  O  1s        0.000000    -0.000000    -0.000242
 MO|    4     1  O  1s        0.000000     0.000000     0.002618
 MO|    5     1  O  1py      -0.069992    -0.000003    -0.000000
 MO|    6     1  O  1pz      -0.000000    -0.000000    -0.000270
 MO|    7     1  O  1px       0.068964    -0.000004    -0.000000
 MO|    8     1  O  1py      -0.043271    -0.000013    -0.000000
 MO|    9     1  O  1pz      -0.000000    -0.000000    -0.000988
 MO|   10     1  O  1px       0.042635    -0.000013    -0.000000
 MO|   11     1  O  1py      -0.254618     0.000023     0.000000
 MO|   12     1  O  1pz      -0.000000     0.000000     0.001783
 MO|   13     1  O  1px       0.250878     0.000023     0.000000
 MO|   14     1  O  1d-2      0.000000     0.000000     0.024611
 MO|   15     1  O  1d-1     -0.000000     0.029027    -0.000000
 MO|   16     1  O  1d0      -0.000000    -0.000000    -0.033213
 MO|   17     1  O  1d+1      0.000000     0.029460    -0.000000
 MO|   18     1  O  1d+2     -0.000000     0.000000     0.000170
 MO|   19     1  O  1d-2      0.000000    -0.000000    -0.061938
 MO|   20     1  O  1d-1      0.000001    -0.072910     0.000000
 MO|   21     1  O  1d0       0.000000     0.000000     0.083134
 MO|   22     1  O  1d+1     -0.000001    -0.073997     0.000000
 MO|   23     1  O  1d+2      0.000000    -0.000000    -0.000422
 MO|   24     1  O  1f-3      0.000094    -0.000000    -0.000000
 MO|   25     1  O  1f-2     -0.000000    -0.000000    -0.000000
 MO|   26     1  O  1f-1     -0.000075     0.000000     0.000000
 MO|   27     1  O  1f0      -0.000000     0.000000    -0.000001
 MO|   28     1  O  1f+1      0.000074     0.000000     0.000000
 MO|   29     1  O  1f+2      0.000000    -0.000000    -0.000000
 MO|   30     1  O  1f+3      0.000098     0.000000     0.000000
 MO|   31     1  O  1s       -0.000000    -0.000000    -0.001047
 MO|   32     1  O  1py       0.833281    -0.000008    -0.000000
 MO|   33     1  O  1pz       0.000000    -0.000000    -0.000612
 MO|   34     1  O  1px      -0.821041    -0.000008    -0.000000
 MO|   35     1  O  1d-2     -0.000000     0.000000     0.627693
 MO|   36     1  O  1d-1     -0.000002     0.740311    -0.000000
 MO|   37     1  O  1d0      -0.000000    -0.000000    -0.847539
 MO|   38     1  O  1d+1      0.000002     0.751348    -0.000000
 MO|   39     1  O  1d+2     -0.000000     0.000000     0.004349
 MO|   40     1  O  1f-3     -0.000091     0.000000     0.000000
 MO|   41     1  O  1f-2      0.000000     0.000000     0.000001
 MO|   42     1  O  1f-1      0.000072    -0.000000    -0.000000
 MO|   43     1  O  1f0       0.000000    -0.000000     0.000002
 MO|   44     1  O  1f+1     -0.000071    -0.000000    -0.000000
 MO|   45     1  O  1f+2     -0.000000     0.000000     0.000000
 MO|   46     1  O  1f+3     -0.000095    -0.000000    -0.000000
 MO|
 MO| E(Fermi):           -0.658573 a.u.        -17.920681 eV
 MO| Band gap:            0.809035 a.u.         22.014958 eV


 MO| BETA EIGENVALUES, OCCUPATION NUMBERS, AND SPHERICAL EIGENVECTORS AFTER SCF STEP 1
 MO|
 MO|                             1            2            3            4
 MO|                        -20.166372    -1.044948    -0.210935    -0.153779
 MO|
 MO|                          1.000000     1.000000     1.000000     0.000000
 MO|
 MO|    1     1  O  1s        0.969032     0.003860     0.000000     0.000000
 MO|    2     1  O  2s       -0.008300    -0.562119    -0.000000    -0.000000
 MO|    3     1  O  1s        0.051176    -0.148331    -0.000000    -0.000000
 MO|    4     1  O  1s        0.007289    -0.395925    -0.000000    -0.000000
 MO|    5     1  O  1py       0.000000    -0.000000     0.236175     0.226394
 MO|    6     1  O  1pz       0.000000    -0.000003     0.000000    -0.000000
 MO|    7     1  O  1px       0.000000    -0.000000    -0.232705     0.229771
 MO|    8     1  O  1py      -0.000000    -0.000000     0.299750     0.288020
 MO|    9     1  O  1pz      -0.000000     0.000008     0.000000    -0.000000
 MO|   10     1  O  1px      -0.000000    -0.000000    -0.295346     0.292315
 MO|   11     1  O  1py       0.000000    -0.000000     0.285452     0.282112
 MO|   12     1  O  1pz       0.000000    -0.000025     0.000000    -0.000000
 MO|   13     1  O  1px       0.000000    -0.000000    -0.281257     0.286319
 MO|   14     1  O  1d-2     -0.000063     0.000553     0.000000     0.000000
 MO|   15     1  O  1d-1     -0.000000    -0.000000     0.000000     0.000000
 MO|   16     1  O  1d0      -0.000037     0.000325    -0.000000    -0.000000
 MO|   17     1  O  1d+1     -0.000000     0.000000    -0.000000     0.000000
 MO|   18     1  O  1d+2     -0.000001     0.000008    -0.000000     0.000000
 MO|   19     1  O  1d-2     -0.000017     0.001114     0.000000    -0.000000
 MO|   20     1  O  1d-1      0.000000    -0.000000    -0.000000    -0.000000
 MO|   21     1  O  1d0      -0.000010     0.000613    -0.000000     0.000000
 MO|   22     1  O  1d+1      0.000000     0.000000     0.000000    -0.000000
 MO|   23     1  O  1d+2     -0.000000     0.000016    -0.000000    -0.000000
 MO|   24     1  O  1f-3     -0.000000    -0.000000    -0.000000    -0.000001
 MO|   25     1  O  1f-2     -0.000000     0.000000     0.000000    -0.000000
 MO|   26     1  O  1f-1     -0.000000    -0.000000     0.000000    -0.000000
 MO|   27     1  O  1f0      -0.000000     0.000000     0.000000     0.000000
 MO|   28     1  O  1f+1      0.000000    -0.000000    -0.000000    -0.000000
 MO|   29     1  O  1f+2     -0.000000     0.000000    -0.000000     0.000000
 MO|   30     1  O  1f+3      0.000000     0.000000    -0.000001     0.000001
 MO|   31     1  O  1s       -0.002015    -0.021027     0.000000     0.000000
 MO|   32     1  O  1py      -0.000000    -0.000000     0.094736     0.113625
 MO|   33     1  O  1pz      -0.000000     0.000013     0.000000    -0.000000
 MO|   34     1  O  1px      -0.000000    -0.000000    -0.093344     0.115320
 MO|   35     1  O  1d-2     -0.000004     0.000856     0.000000     0.000000
 MO|   36     1  O  1d-1     -0.000000    -0.000000     0.000001     0.000001
 MO|   37     1  O  1d0      -0.000002     0.000561    -0.000000    -0.000000
 MO|   38     1  O  1d+1     -0.000000     0.000000    -0.000001     0.000001
 MO|   39     1  O  1d+2     -0.000000     0.000013    -0.000000     0.000000
 MO|   40     1  O  1f-3     -0.000000     0.000000     0.000001     0.000002
 MO|   41     1  O  1f-2     -0.000000    -0.000000    -0.000000     0.000000
 MO|   42     1  O  1f-1      0.000000     0.000000    -0.000001     0.000000
 MO|   43     1  O  1f0       0.000000     0.000000    -0.000000    -0.000000
 MO|   44     1  O  1f+1     -0.000000     0.000000     0.000001     0.000000
 MO|   45     1  O  1f+2     -0.000000    -0.000000     0.000000    -0.000000
 MO|   46     1  O  1f+3      0.000000    -0.000000     0.000001    -0.000002
 MO|
 MO|                             5            6            7            8
 MO|                         -0.153743     0.166236     0.173235     0.175605
 MO|
 MO|                          0.000000     0.000000     0.000000     0.000000
 MO|
 MO|    1     1  O  1s       -0.000026    -0.060596     0.000000    -0.000000
 MO|    2     1  O  2s       -0.000056     0.044632    -0.000000     0.000000
 MO|    3     1  O  1s        0.000001     0.045337    -0.000000     0.000000
 MO|    4     1  O  1s        0.000113     0.949052    -0.000000     0.000000
 MO|    5     1  O  1py       0.000000     0.000000     0.095139    -0.099039
 MO|    6     1  O  1pz       0.322559     0.000235     0.000000     0.000000
 MO|    7     1  O  1px       0.000000     0.000000    -0.093740    -0.100516
 MO|    8     1  O  1py       0.000000     0.000000     0.071083    -0.076326
 MO|    9     1  O  1pz       0.410491     0.000113     0.000000     0.000000
 MO|   10     1  O  1px       0.000000     0.000000    -0.070038    -0.077465
 MO|   11     1  O  1py       0.000000     0.000000     0.341246    -0.349680
 MO|   12     1  O  1pz       0.401681     0.001005     0.000000     0.000000
 MO|   13     1  O  1px       0.000000     0.000000    -0.336231    -0.354895
 MO|   14     1  O  1d-2     -0.000000    -0.000073     0.000000     0.000000
 MO|   15     1  O  1d-1      0.000000     0.000000     0.000000    -0.000000
 MO|   16     1  O  1d0      -0.000008    -0.000069     0.000000    -0.000000
 MO|   17     1  O  1d+1      0.000000    -0.000000    -0.000000    -0.000000
 MO|   18     1  O  1d+2     -0.000000    -0.000001     0.000000     0.000000
 MO|   19     1  O  1d-2     -0.000000     0.000262     0.000000    -0.000000
 MO|   20     1  O  1d-1     -0.000000     0.000000    -0.000001     0.000001
 MO|   21     1  O  1d0       0.000043     0.000292    -0.000000     0.000000
 MO|   22     1  O  1d+1     -0.000000     0.000000     0.000001     0.000001
 MO|   23     1  O  1d+2     -0.000000     0.000004    -0.000000    -0.000000
 MO|   24     1  O  1f-3     -0.000000     0.000000    -0.000022    -0.000023
 MO|   25     1  O  1f-2     -0.000001     0.000000     0.000000     0.000000
 MO|   26     1  O  1f-1      0.000000    -0.000000     0.000018    -0.000006
 MO|   27     1  O  1f0      -0.000001     0.000000     0.000000     0.000000
 MO|   28     1  O  1f+1      0.000000    -0.000000    -0.000017    -0.000006
 MO|   29     1  O  1f+2     -0.000000     0.000000    -0.000000    -0.000000
 MO|   30     1  O  1f+3      0.000000    -0.000000    -0.000023     0.000022
 MO|   31     1  O  1s       -0.000099    -1.539096     0.000000    -0.000000
 MO|   32     1  O  1py       0.000000    -0.000000    -0.845254     0.831806
 MO|   33     1  O  1pz       0.162133    -0.002228    -0.000000    -0.000000
 MO|   34     1  O  1px       0.000000    -0.000000     0.832832     0.844213
 MO|   35     1  O  1d-2      0.000000    -0.000239    -0.000000     0.000000
 MO|   36     1  O  1d-1      0.000000    -0.000000     0.000003    -0.000003
 MO|   37     1  O  1d0      -0.000134    -0.000629     0.000000    -0.000000
 MO|   38     1  O  1d+1      0.000000    -0.000000    -0.000003    -0.000003
 MO|   39     1  O  1d+2      0.000000    -0.000004     0.000000     0.000000
 MO|   40     1  O  1f-3      0.000000     0.000000     0.000020     0.000020
 MO|   41     1  O  1f-2      0.000002    -0.000000    -0.000000    -0.000000
 MO|   42     1  O  1f-1     -0.000000     0.000000    -0.000016     0.000005
 MO|   43     1  O  1f0       0.000001    -0.000000    -0.000000    -0.000000
 MO|   44     1  O  1f+1     -0.000000     0.000000     0.000016     0.000005
 MO|   45     1  O  1f+2      0.000000    -0.000000     0.000000    -0.000000
 MO|   46     1  O  1f+3     -0.000000    -0.000000     0.000021    -0.000019
 MO|
 MO|                             9
 MO|                          0.175659
 MO|
 MO|                          0.000000
 MO|
 MO|    1     1  O  1s       -0.000075
 MO|    2     1  O  2s        0.000169
 MO|    3     1  O  1s        0.000087
 MO|    4     1  O  1s        0.001629
 MO|    5     1  O  1py      -0.000000
 MO|    6     1  O  1pz      -0.141185
 MO|    7     1  O  1px      -0.000000
 MO|    8     1  O  1py      -0.000000
 MO|    9     1  O  1pz      -0.109025
 MO|   10     1  O  1px      -0.000000
 MO|   11     1  O  1py      -0.000000
 MO|   12     1  O  1pz      -0.497933
 MO|   13     1  O  1px      -0.000000
 MO|   14     1  O  1d-2     -0.000000
 MO|   15     1  O  1d-1      0.000000
 MO|   16     1  O  1d0       0.000014
 MO|   17     1  O  1d+1      0.000000
 MO|   18     1  O  1d+2     -0.000000
 MO|   19     1  O  1d-2      0.000001
 MO|   20     1  O  1d-1     -0.000000
 MO|   21     1  O  1d0      -0.000076
 MO|   22     1  O  1d+1     -0.000000
 MO|   23     1  O  1d+2      0.000000
 MO|   24     1  O  1f-3     -0.000000
 MO|   25     1  O  1f-2     -0.000026
 MO|   26     1  O  1f-1     -0.000000
 MO|   27     1  O  1f0      -0.000020
 MO|   28     1  O  1f+1     -0.000000
 MO|   29     1  O  1f+2     -0.000000
 MO|   30     1  O  1f+3      0.000000
 MO|   31     1  O  1s       -0.002783
 MO|   32     1  O  1py       0.000000
 MO|   33     1  O  1pz       1.184998
 MO|   34     1  O  1px       0.000000
 MO|   35     1  O  1d-2     -0.000000
 MO|   36     1  O  1d-1      0.000000
 MO|   37     1  O  1d0       0.000271
 MO|   38     1  O  1d+1      0.000000
 MO|   39     1  O  1d+2     -0.000000
 MO|   40     1  O  1f-3      0.000000
 MO|   41     1  O  1f-2      0.000022
 MO|   42     1  O  1f-1      0.000000
 MO|   43     1  O  1f0       0.000017
 MO|   44     1  O  1f+1      0.000000
 MO|   45     1  O  1f+2      0.000000
 MO|   46     1  O  1f+3     -0.000000
 MO|
 MO| E(Fermi):           -0.210935 a.u.         -5.739843 eV
 MO| Band gap:            0.057156 a.u.          1.555300 eV

     2 P_Mix/Diag. 0.10E+00    2.5     0.13249469       -73.9649502915 -6.30E-02

 MO| ALPHA EIGENVALUES, OCCUPATION NUMBERS, AND SPHERICAL EIGENVECTORS AFTER SCF STEP 2
 MO|
 MO|                             1            2            3            4
 MO|                        -21.274589    -1.495615    -0.673732    -0.673714
 MO|
 MO|                          1.000000     1.000000     1.000000     1.000000
 MO|
 MO|    1     1  O  1s       -0.982850    -0.002484     0.000000     0.000016
 MO|    2     1  O  2s       -0.006670    -0.606553     0.000000     0.000035
 MO|    3     1  O  1s       -0.035308    -0.181527     0.000000    -0.000000
 MO|    4     1  O  1s        0.000559    -0.337596     0.000000    -0.000055
 MO|    5     1  O  1py      -0.000000    -0.000000    -0.279068    -0.000000
 MO|    6     1  O  1pz      -0.000000    -0.000003     0.000000    -0.397614
 MO|    7     1  O  1px      -0.000000    -0.000000    -0.283229    -0.000000
 MO|    8     1  O  1py       0.000000    -0.000000    -0.349225    -0.000000
 MO|    9     1  O  1pz       0.000000     0.000006     0.000000    -0.497654
 MO|   10     1  O  1px       0.000000    -0.000000    -0.354433    -0.000000
 MO|   11     1  O  1py      -0.000000    -0.000000    -0.216836    -0.000000
 MO|   12     1  O  1pz      -0.000000    -0.000017     0.000000    -0.308805
 MO|   13     1  O  1px      -0.000000    -0.000000    -0.220069    -0.000000
 MO|   14     1  O  1d-2     -0.000077    -0.000927    -0.000000     0.000000
 MO|   15     1  O  1d-1      0.000000     0.000000    -0.000000    -0.000000
 MO|   16     1  O  1d0      -0.000045    -0.000530     0.000000     0.000004
 MO|   17     1  O  1d+1      0.000000    -0.000000    -0.000000    -0.000000
 MO|   18     1  O  1d+2     -0.000001    -0.000014     0.000000     0.000000
 MO|   19     1  O  1d-2      0.000030    -0.001791    -0.000000     0.000000
 MO|   20     1  O  1d-1     -0.000000     0.000000     0.000000    -0.000000
 MO|   21     1  O  1d0       0.000017    -0.001057     0.000000    -0.000023
 MO|   22     1  O  1d+1     -0.000000    -0.000000     0.000000    -0.000000
 MO|   23     1  O  1d+2      0.000000    -0.000027     0.000000     0.000000
 MO|   24     1  O  1f-3     -0.000000    -0.000000    -0.000605    -0.000000
 MO|   25     1  O  1f-2     -0.000000    -0.000000     0.000000    -0.000684
 MO|   26     1  O  1f-1      0.000000    -0.000000    -0.000152    -0.000000
 MO|   27     1  O  1f0       0.000000     0.000000     0.000000    -0.000529
 MO|   28     1  O  1f+1     -0.000000    -0.000000    -0.000154    -0.000000
 MO|   29     1  O  1f+2     -0.000000    -0.000000     0.000000    -0.000010
 MO|   30     1  O  1f+3      0.000000     0.000000     0.000579     0.000000
 MO|   31     1  O  1s       -0.000476    -0.000966    -0.000000     0.000038
 MO|   32     1  O  1py       0.000000    -0.000000    -0.012233    -0.000000
 MO|   33     1  O  1pz       0.000000     0.000009     0.000000    -0.017517
 MO|   34     1  O  1px       0.000000    -0.000000    -0.012416    -0.000000
 MO|   35     1  O  1d-2     -0.000012    -0.000145    -0.000000    -0.000000
 MO|   36     1  O  1d-1      0.000000     0.000000    -0.000001    -0.000000
 MO|   37     1  O  1d0      -0.000007    -0.000037     0.000000     0.000067
 MO|   38     1  O  1d+1      0.000000    -0.000000    -0.000001    -0.000000
 MO|   39     1  O  1d+2     -0.000000    -0.000002    -0.000000    -0.000000
 MO|   40     1  O  1f-3      0.000000     0.000000    -0.000582    -0.000000
 MO|   41     1  O  1f-2      0.000000    -0.000000     0.000000    -0.000658
 MO|   42     1  O  1f-1     -0.000000     0.000000    -0.000146    -0.000000
 MO|   43     1  O  1f0       0.000000     0.000000     0.000000    -0.000509
 MO|   44     1  O  1f+1      0.000000     0.000000    -0.000148    -0.000000
 MO|   45     1  O  1f+2      0.000000    -0.000000     0.000000    -0.000010
 MO|   46     1  O  1f+3     -0.000000    -0.000000     0.000557     0.000000
 MO|
 MO|                             5            6            7            8
 MO|                         -0.659982     0.150529     0.154432     0.154458
 MO|
 MO|                          1.000000     0.000000     0.000000     0.000000
 MO|
 MO|    1     1  O  1s       -0.000000     0.049722     0.000000     0.000114
 MO|    2     1  O  2s       -0.000000    -0.059205    -0.000000    -0.000230
 MO|    3     1  O  1s       -0.000000    -0.055323    -0.000000    -0.000160
 MO|    4     1  O  1s       -0.000000    -0.863756    -0.000000    -0.002356
 MO|    5     1  O  1py       0.282859    -0.000000     0.068500     0.000000
 MO|    6     1  O  1pz       0.000000    -0.000262    -0.000000     0.097632
 MO|    7     1  O  1px      -0.278703    -0.000000     0.069521     0.000000
 MO|    8     1  O  1py       0.353149    -0.000000     0.042773     0.000000
 MO|    9     1  O  1pz       0.000000    -0.000101    -0.000000     0.061116
 MO|   10     1  O  1px      -0.347961    -0.000000     0.043411     0.000000
 MO|   11     1  O  1py       0.221742    -0.000000     0.247912     0.000000
 MO|   12     1  O  1pz       0.000000    -0.001112    -0.000000     0.352947
 MO|   13     1  O  1px      -0.218484    -0.000000     0.251608     0.000000
 MO|   14     1  O  1d-2     -0.000000    -0.000135    -0.000000    -0.000000
 MO|   15     1  O  1d-1      0.000000     0.000000     0.000000    -0.000000
 MO|   16     1  O  1d0      -0.000000    -0.000053     0.000000    -0.000010
 MO|   17     1  O  1d+1     -0.000000    -0.000000     0.000000    -0.000000
 MO|   18     1  O  1d+2     -0.000000    -0.000002    -0.000000    -0.000000
 MO|   19     1  O  1d-2     -0.000000    -0.001014    -0.000000    -0.000003
 MO|   20     1  O  1d-1     -0.000000     0.000000    -0.000001     0.000000
 MO|   21     1  O  1d0      -0.000000    -0.000708    -0.000000     0.000049
 MO|   22     1  O  1d+1      0.000000    -0.000000    -0.000001     0.000000
 MO|   23     1  O  1d+2     -0.000000    -0.000015    -0.000000    -0.000000
 MO|   24     1  O  1f-3     -0.000578    -0.000000     0.000187     0.000000
 MO|   25     1  O  1f-2      0.000000    -0.000001    -0.000000     0.000211
 MO|   26     1  O  1f-1      0.000462    -0.000000     0.000047     0.000000
 MO|   27     1  O  1f0       0.000000    -0.000000    -0.000000     0.000163
 MO|   28     1  O  1f+1     -0.000455    -0.000000     0.000047     0.000000
 MO|   29     1  O  1f+2     -0.000000    -0.000000    -0.000000     0.000003
 MO|   30     1  O  1f+3     -0.000604     0.000000    -0.000178    -0.000000
 MO|   31     1  O  1s        0.000000     1.510033     0.000000     0.004238
 MO|   32     1  O  1py       0.013240     0.000000    -0.820112    -0.000000
 MO|   33     1  O  1pz       0.000000     0.003355     0.000000    -1.168369
 MO|   34     1  O  1px      -0.013046     0.000000    -0.832339    -0.000000
 MO|   35     1  O  1d-2      0.000000     0.004430     0.000000     0.000013
 MO|   36     1  O  1d-1      0.000001    -0.000000     0.000002    -0.000000
 MO|   37     1  O  1d0      -0.000000     0.003001     0.000000    -0.000180
 MO|   38     1  O  1d+1     -0.000001     0.000000     0.000002    -0.000000
 MO|   39     1  O  1d+2     -0.000000     0.000065     0.000000     0.000000
 MO|   40     1  O  1f-3     -0.000563     0.000000    -0.000183    -0.000000
 MO|   41     1  O  1f-2      0.000000     0.000001     0.000000    -0.000207
 MO|   42     1  O  1f-1      0.000449     0.000000    -0.000046    -0.000000
 MO|   43     1  O  1f0       0.000000     0.000000     0.000000    -0.000161
 MO|   44     1  O  1f+1     -0.000442     0.000000    -0.000047    -0.000000
 MO|   45     1  O  1f+2      0.000000     0.000000     0.000000    -0.000003
 MO|   46     1  O  1f+3     -0.000589    -0.000000     0.000175     0.000000
 MO|
 MO|                             9           10           11
 MO|                          0.156373     0.625292     0.625714
 MO|
 MO|                          0.000000     0.000000     0.000000
 MO|
 MO|    1     1  O  1s       -0.000000    -0.000000    -0.000694
 MO|    2     1  O  2s        0.000000    -0.000000    -0.001811
 MO|    3     1  O  1s        0.000000    -0.000000    -0.000245
 MO|    4     1  O  1s        0.000000     0.000000     0.002651
 MO|    5     1  O  1py      -0.069683    -0.000004    -0.000000
 MO|    6     1  O  1pz      -0.000000    -0.000000    -0.000280
 MO|    7     1  O  1px       0.068660    -0.000004    -0.000000
 MO|    8     1  O  1py      -0.042740    -0.000013    -0.000000
 MO|    9     1  O  1pz      -0.000000    -0.000000    -0.001027
 MO|   10     1  O  1px       0.042113    -0.000013    -0.000000
 MO|   11     1  O  1py      -0.254871     0.000023     0.000000
 MO|   12     1  O  1pz      -0.000000     0.000000     0.001856
 MO|   13     1  O  1px       0.251127     0.000024     0.000000
 MO|   14     1  O  1d-2      0.000000     0.000000     0.022727
 MO|   15     1  O  1d-1     -0.000000     0.029053    -0.000000
 MO|   16     1  O  1d0      -0.000000    -0.000000    -0.034572
 MO|   17     1  O  1d+1      0.000000     0.029486    -0.000000
 MO|   18     1  O  1d+2     -0.000000     0.000000     0.000219
 MO|   19     1  O  1d-2      0.000000    -0.000000    -0.056694
 MO|   20     1  O  1d-1      0.000001    -0.072325     0.000000
 MO|   21     1  O  1d0       0.000000     0.000000     0.085762
 MO|   22     1  O  1d+1     -0.000001    -0.073403     0.000000
 MO|   23     1  O  1d+2      0.000000    -0.000000    -0.000539
 MO|   24     1  O  1f-3      0.000178    -0.000000    -0.000000
 MO|   25     1  O  1f-2     -0.000000    -0.000000    -0.000001
 MO|   26     1  O  1f-1     -0.000142     0.000000     0.000000
 MO|   27     1  O  1f0      -0.000000     0.000000    -0.000001
 MO|   28     1  O  1f+1      0.000140     0.000000     0.000000
 MO|   29     1  O  1f+2      0.000000    -0.000000    -0.000000
 MO|   30     1  O  1f+3      0.000186     0.000000     0.000000
 MO|   31     1  O  1s       -0.000000    -0.000000    -0.001032
 MO|   32     1  O  1py       0.833477    -0.000008    -0.000000
 MO|   33     1  O  1pz       0.000000    -0.000000    -0.000639
 MO|   34     1  O  1px      -0.821234    -0.000008    -0.000000
 MO|   35     1  O  1d-2     -0.000000     0.000000     0.578883
 MO|   36     1  O  1d-1     -0.000002     0.739984    -0.000000
 MO|   37     1  O  1d0      -0.000000    -0.000000    -0.881014
 MO|   38     1  O  1d+1      0.000002     0.751015    -0.000000
 MO|   39     1  O  1d+2     -0.000000     0.000000     0.005594
 MO|   40     1  O  1f-3     -0.000170     0.000000     0.000000
 MO|   41     1  O  1f-2      0.000000     0.000000     0.000002
 MO|   42     1  O  1f-1      0.000136    -0.000000    -0.000000
 MO|   43     1  O  1f0       0.000000    -0.000000     0.000002
 MO|   44     1  O  1f+1     -0.000134    -0.000000    -0.000000
 MO|   45     1  O  1f+2     -0.000000     0.000000     0.000000
 MO|   46     1  O  1f+3     -0.000178    -0.000000    -0.000000
 MO|
 MO| E(Fermi):           -0.659982 a.u.        -17.959023 eV
 MO| Band gap:            0.810511 a.u.         22.055133 eV


 MO| BETA EIGENVALUES, OCCUPATION NUMBERS, AND SPHERICAL EIGENVECTORS AFTER SCF STEP 2
 MO|
 MO|                             1            2            3            4
 MO|                        -20.219792    -1.051386    -0.240618    -0.131715
 MO|
 MO|                          1.000000     1.000000     1.000000     0.000000
 MO|
 MO|    1     1  O  1s       -0.969863     0.003770     0.000000     0.000000
 MO|    2     1  O  2s        0.007587    -0.562062    -0.000000    -0.000000
 MO|    3     1  O  1s       -0.050119    -0.148820    -0.000000    -0.000000
 MO|    4     1  O  1s       -0.006890    -0.395703    -0.000000    -0.000000
 MO|    5     1  O  1py      -0.000000    -0.000000     0.238383     0.222567
 MO|    6     1  O  1pz      -0.000000    -0.000004     0.000000    -0.000000
 MO|    7     1  O  1px      -0.000000    -0.000000    -0.234881     0.225886
 MO|    8     1  O  1py       0.000000    -0.000000     0.302340     0.283581
 MO|    9     1  O  1pz       0.000000     0.000008     0.000000    -0.000000
 MO|   10     1  O  1px       0.000000    -0.000000    -0.297898     0.287810
 MO|   11     1  O  1py      -0.000000    -0.000000     0.284797     0.281943
 MO|   12     1  O  1pz      -0.000000    -0.000025     0.000000    -0.000000
 MO|   13     1  O  1px      -0.000000    -0.000000    -0.280612     0.286147
 MO|   14     1  O  1d-2      0.000122     0.001070     0.000000     0.000000
 MO|   15     1  O  1d-1      0.000000    -0.000000     0.000000     0.000000
 MO|   16     1  O  1d0       0.000070     0.000624    -0.000000    -0.000000
 MO|   17     1  O  1d+1      0.000000     0.000000    -0.000000     0.000000
 MO|   18     1  O  1d+2      0.000002     0.000016    -0.000000     0.000000
 MO|   19     1  O  1d-2      0.000032     0.002165     0.000000    -0.000000
 MO|   20     1  O  1d-1     -0.000000    -0.000000    -0.000000    -0.000000
 MO|   21     1  O  1d0       0.000019     0.001219    -0.000000     0.000000
 MO|   22     1  O  1d+1     -0.000000     0.000000     0.000000    -0.000000
 MO|   23     1  O  1d+2      0.000000     0.000032    -0.000000    -0.000000
 MO|   24     1  O  1f-3      0.000000    -0.000000     0.000002    -0.000008
 MO|   25     1  O  1f-2      0.000000     0.000000    -0.000000     0.000000
 MO|   26     1  O  1f-1      0.000000    -0.000000    -0.000001    -0.000002
 MO|   27     1  O  1f0       0.000000     0.000000    -0.000000     0.000000
 MO|   28     1  O  1f+1     -0.000000    -0.000000     0.000001    -0.000002
 MO|   29     1  O  1f+2      0.000000     0.000000    -0.000000    -0.000000
 MO|   30     1  O  1f+3      0.000000     0.000000     0.000002     0.000007
 MO|   31     1  O  1s        0.001893    -0.020913     0.000000     0.000000
 MO|   32     1  O  1py       0.000000    -0.000000     0.087851     0.126360
 MO|   33     1  O  1pz       0.000000     0.000013     0.000000    -0.000000
 MO|   34     1  O  1px       0.000000    -0.000000    -0.086560     0.128244
 MO|   35     1  O  1d-2      0.000007     0.001627     0.000000     0.000000
 MO|   36     1  O  1d-1      0.000000    -0.000000     0.000001     0.000002
 MO|   37     1  O  1d0       0.000004     0.001008    -0.000000    -0.000000
 MO|   38     1  O  1d+1      0.000000     0.000000    -0.000001     0.000002
 MO|   39     1  O  1d+2      0.000000     0.000024    -0.000000     0.000000
 MO|   40     1  O  1f-3      0.000000     0.000000     0.000008     0.000004
 MO|   41     1  O  1f-2      0.000000    -0.000000    -0.000000    -0.000000
 MO|   42     1  O  1f-1      0.000000     0.000000    -0.000007     0.000001
 MO|   43     1  O  1f0      -0.000000     0.000000    -0.000000    -0.000000
 MO|   44     1  O  1f+1      0.000000     0.000000     0.000007     0.000001
 MO|   45     1  O  1f+2      0.000000    -0.000000     0.000000     0.000000
 MO|   46     1  O  1f+3     -0.000000    -0.000000     0.000008    -0.000004
 MO|
 MO|                             5            6            7            8
 MO|                         -0.131678     0.165855     0.172380     0.177074
 MO|
 MO|                          0.000000     0.000000     0.000000     0.000000
 MO|
 MO|    1     1  O  1s       -0.000027    -0.060459     0.000000    -0.000000
 MO|    2     1  O  2s       -0.000057     0.044836    -0.000000     0.000000
 MO|    3     1  O  1s        0.000001     0.045517    -0.000000     0.000000
 MO|    4     1  O  1s        0.000117     0.948314    -0.000000     0.000000
 MO|    5     1  O  1py       0.000000     0.000000     0.093358    -0.102329
 MO|    6     1  O  1pz       0.317104     0.000205     0.000000     0.000000
 MO|    7     1  O  1px       0.000000     0.000000    -0.091986    -0.103856
 MO|    8     1  O  1py       0.000000     0.000000     0.069005    -0.080257
 MO|    9     1  O  1pz       0.404166     0.000093     0.000000     0.000000
 MO|   10     1  O  1px       0.000000     0.000000    -0.067991    -0.081454
 MO|   11     1  O  1py       0.000000     0.000000     0.336301    -0.357648
 MO|   12     1  O  1pz       0.401429     0.000891     0.000000     0.000000
 MO|   13     1  O  1px       0.000000     0.000000    -0.331358    -0.362982
 MO|   14     1  O  1d-2     -0.000000    -0.000147     0.000000     0.000000
 MO|   15     1  O  1d-1      0.000000     0.000000     0.000000    -0.000000
 MO|   16     1  O  1d0      -0.000008    -0.000111     0.000000    -0.000000
 MO|   17     1  O  1d+1      0.000000    -0.000000    -0.000000    -0.000000
 MO|   18     1  O  1d+2     -0.000000    -0.000002     0.000000    -0.000000
 MO|   19     1  O  1d-2     -0.000000     0.000490    -0.000000    -0.000000
 MO|   20     1  O  1d-1     -0.000000     0.000000    -0.000001     0.000001
 MO|   21     1  O  1d0       0.000044     0.000424    -0.000000     0.000000
 MO|   22     1  O  1d+1     -0.000000     0.000000     0.000001     0.000001
 MO|   23     1  O  1d+2     -0.000000     0.000007    -0.000000     0.000000
 MO|   24     1  O  1f-3     -0.000000     0.000000    -0.000041    -0.000041
 MO|   25     1  O  1f-2     -0.000009     0.000000     0.000000     0.000000
 MO|   26     1  O  1f-1      0.000000     0.000000     0.000033    -0.000010
 MO|   27     1  O  1f0      -0.000007     0.000000     0.000000     0.000000
 MO|   28     1  O  1f+1     -0.000000     0.000000    -0.000033    -0.000010
 MO|   29     1  O  1f+2     -0.000000     0.000000    -0.000000    -0.000000
 MO|   30     1  O  1f+3      0.000000    -0.000000    -0.000043     0.000039
 MO|   31     1  O  1s       -0.000104    -1.538827     0.000000    -0.000000
 MO|   32     1  O  1py       0.000000    -0.000000    -0.845339     0.830720
 MO|   33     1  O  1pz       0.180293    -0.001918    -0.000000    -0.000000
 MO|   34     1  O  1px       0.000000    -0.000000     0.832916     0.843111
 MO|   35     1  O  1d-2      0.000000    -0.000522     0.000000     0.000000
 MO|   36     1  O  1d-1      0.000000    -0.000000     0.000003    -0.000003
 MO|   37     1  O  1d0      -0.000137    -0.000793     0.000000    -0.000000
 MO|   38     1  O  1d+1      0.000000    -0.000000    -0.000003    -0.000003
 MO|   39     1  O  1d+2      0.000000    -0.000008     0.000000     0.000000
 MO|   40     1  O  1f-3      0.000000     0.000000     0.000043     0.000039
 MO|   41     1  O  1f-2      0.000005    -0.000000    -0.000000    -0.000000
 MO|   42     1  O  1f-1     -0.000000     0.000000    -0.000034     0.000010
 MO|   43     1  O  1f0       0.000003    -0.000000    -0.000000    -0.000000
 MO|   44     1  O  1f+1      0.000000     0.000000     0.000034     0.000010
 MO|   45     1  O  1f+2      0.000000    -0.000000     0.000000     0.000000
 MO|   46     1  O  1f+3     -0.000000    -0.000000     0.000044    -0.000037
 MO|
 MO|                             9
 MO|                          0.177131
 MO|
 MO|                          0.000000
 MO|
 MO|    1     1  O  1s       -0.000058
 MO|    2     1  O  2s        0.000160
 MO|    3     1  O  1s        0.000075
 MO|    4     1  O  1s        0.001378
 MO|    5     1  O  1py      -0.000000
 MO|    6     1  O  1pz      -0.145877
 MO|    7     1  O  1px      -0.000000
 MO|    8     1  O  1py      -0.000000
 MO|    9     1  O  1pz      -0.114635
 MO|   10     1  O  1px      -0.000000
 MO|   11     1  O  1py      -0.000000
 MO|   12     1  O  1pz      -0.509285
 MO|   13     1  O  1px      -0.000000
 MO|   14     1  O  1d-2     -0.000000
 MO|   15     1  O  1d-1      0.000000
 MO|   16     1  O  1d0       0.000015
 MO|   17     1  O  1d+1      0.000000
 MO|   18     1  O  1d+2     -0.000000
 MO|   19     1  O  1d-2      0.000001
 MO|   20     1  O  1d-1     -0.000000
 MO|   21     1  O  1d0      -0.000077
 MO|   22     1  O  1d+1     -0.000000
 MO|   23     1  O  1d+2      0.000000
 MO|   24     1  O  1f-3     -0.000000
 MO|   25     1  O  1f-2     -0.000046
 MO|   26     1  O  1f-1     -0.000000
 MO|   27     1  O  1f0      -0.000036
 MO|   28     1  O  1f+1     -0.000000
 MO|   29     1  O  1f+2     -0.000001
 MO|   30     1  O  1f+3      0.000000
 MO|   31     1  O  1s       -0.002380
 MO|   32     1  O  1py       0.000000
 MO|   33     1  O  1pz       1.183444
 MO|   34     1  O  1px       0.000000
 MO|   35     1  O  1d-2     -0.000001
 MO|   36     1  O  1d-1      0.000000
 MO|   37     1  O  1d0       0.000278
 MO|   38     1  O  1d+1      0.000000
 MO|   39     1  O  1d+2     -0.000000
 MO|   40     1  O  1f-3      0.000000
 MO|   41     1  O  1f-2      0.000044
 MO|   42     1  O  1f-1      0.000000
 MO|   43     1  O  1f0       0.000034
 MO|   44     1  O  1f+1      0.000000
 MO|   45     1  O  1f+2      0.000001
 MO|   46     1  O  1f+3     -0.000000
 MO|
 MO| E(Fermi):           -0.240618 a.u.         -6.547542 eV
 MO| Band gap:            0.108903 a.u.          2.963389 eV

     3 P_Mix/Diag. 0.10E+00    2.4     0.12085698       -74.0267228440 -6.18E-02

 MO| ALPHA EIGENVALUES, OCCUPATION NUMBERS, AND SPHERICAL EIGENVECTORS AFTER SCF STEP 3
 MO|
 MO|                             1            2            3            4
 MO|                        -21.226310    -1.492170    -0.680462    -0.680445
 MO|
 MO|                          1.000000     1.000000     1.000000     1.000000
 MO|
 MO|    1     1  O  1s        0.982105    -0.002834     0.000000     0.000016
 MO|    2     1  O  2s        0.005996    -0.607568     0.000000     0.000035
 MO|    3     1  O  1s        0.036229    -0.181026     0.000000    -0.000000
 MO|    4     1  O  1s       -0.000146    -0.337027     0.000000    -0.000055
 MO|    5     1  O  1py       0.000000    -0.000000    -0.279357    -0.000000
 MO|    6     1  O  1pz       0.000000    -0.000002     0.000000    -0.398027
 MO|    7     1  O  1px       0.000000    -0.000000    -0.283523    -0.000000
 MO|    8     1  O  1py      -0.000000    -0.000000    -0.350170    -0.000000
 MO|    9     1  O  1pz      -0.000000     0.000006     0.000000    -0.499001
 MO|   10     1  O  1px      -0.000000    -0.000000    -0.355392    -0.000000
 MO|   11     1  O  1py       0.000000    -0.000000    -0.215604    -0.000000
 MO|   12     1  O  1pz       0.000000    -0.000017     0.000000    -0.307049
 MO|   13     1  O  1px       0.000000    -0.000000    -0.218819    -0.000000
 MO|   14     1  O  1d-2      0.000112    -0.001346    -0.000000     0.000000
 MO|   15     1  O  1d-1     -0.000000     0.000000    -0.000000    -0.000000
 MO|   16     1  O  1d0       0.000065    -0.000772     0.000000     0.000004
 MO|   17     1  O  1d+1     -0.000000    -0.000000    -0.000000    -0.000000
 MO|   18     1  O  1d+2      0.000002    -0.000020     0.000000     0.000000
 MO|   19     1  O  1d-2     -0.000043    -0.002603    -0.000000     0.000000
 MO|   20     1  O  1d-1      0.000000     0.000000     0.000000    -0.000000
 MO|   21     1  O  1d0      -0.000025    -0.001526     0.000000    -0.000023
 MO|   22     1  O  1d+1      0.000000    -0.000000     0.000000    -0.000000
 MO|   23     1  O  1d+2     -0.000001    -0.000039     0.000000     0.000000
 MO|   24     1  O  1f-3      0.000000    -0.000000    -0.000876    -0.000000
 MO|   25     1  O  1f-2      0.000000    -0.000000     0.000000    -0.000990
 MO|   26     1  O  1f-1      0.000000    -0.000000    -0.000220    -0.000000
 MO|   27     1  O  1f0      -0.000000    -0.000000     0.000000    -0.000766
 MO|   28     1  O  1f+1     -0.000000    -0.000000    -0.000223    -0.000000
 MO|   29     1  O  1f+2      0.000000    -0.000000     0.000000    -0.000015
 MO|   30     1  O  1f+3     -0.000000     0.000000     0.000838     0.000000
 MO|   31     1  O  1s        0.000348    -0.000761    -0.000000     0.000038
 MO|   32     1  O  1py      -0.000000    -0.000000    -0.011574    -0.000000
 MO|   33     1  O  1pz      -0.000000     0.000009     0.000000    -0.016578
 MO|   34     1  O  1px      -0.000000    -0.000000    -0.011747    -0.000000
 MO|   35     1  O  1d-2      0.000017    -0.000208    -0.000000    -0.000000
 MO|   36     1  O  1d-1     -0.000000     0.000000    -0.000001    -0.000000
 MO|   37     1  O  1d0       0.000010    -0.000072     0.000000     0.000068
 MO|   38     1  O  1d+1     -0.000000    -0.000000    -0.000001    -0.000000
 MO|   39     1  O  1d+2      0.000000    -0.000003    -0.000000    -0.000000
 MO|   40     1  O  1f-3     -0.000000     0.000000    -0.000836    -0.000000
 MO|   41     1  O  1f-2     -0.000000    -0.000000     0.000000    -0.000944
 MO|   42     1  O  1f-1     -0.000000     0.000000    -0.000209    -0.000000
 MO|   43     1  O  1f0      -0.000000     0.000000     0.000000    -0.000730
 MO|   44     1  O  1f+1      0.000000     0.000000    -0.000212    -0.000000
 MO|   45     1  O  1f+2     -0.000000    -0.000000     0.000000    -0.000014
 MO|   46     1  O  1f+3     -0.000000    -0.000000     0.000799     0.000000
 MO|
 MO|                             5            6            7            8
 MO|                         -0.660586     0.150651     0.154087     0.154114
 MO|
 MO|                          1.000000     0.000000     0.000000     0.000000
 MO|
 MO|    1     1  O  1s       -0.000000     0.049675     0.000000     0.000134
 MO|    2     1  O  2s       -0.000000    -0.059078    -0.000000    -0.000252
 MO|    3     1  O  1s       -0.000000    -0.055082    -0.000000    -0.000180
 MO|    4     1  O  1s       -0.000000    -0.863723    -0.000000    -0.002690
 MO|    5     1  O  1py       0.282968    -0.000000     0.068143     0.000000
 MO|    6     1  O  1pz       0.000000    -0.000298    -0.000000     0.097123
 MO|    7     1  O  1px      -0.278811    -0.000000     0.069158     0.000000
 MO|    8     1  O  1py       0.353514    -0.000000     0.042557     0.000000
 MO|    9     1  O  1pz       0.000000    -0.000123    -0.000000     0.060809
 MO|   10     1  O  1px      -0.348320    -0.000000     0.043192     0.000000
 MO|   11     1  O  1py       0.221291    -0.000000     0.246866     0.000000
 MO|   12     1  O  1pz       0.000000    -0.001245    -0.000000     0.351456
 MO|   13     1  O  1px      -0.218040    -0.000000     0.250547     0.000000
 MO|   14     1  O  1d-2     -0.000000    -0.000200    -0.000000    -0.000001
 MO|   15     1  O  1d-1      0.000000     0.000000     0.000000    -0.000000
 MO|   16     1  O  1d0      -0.000000    -0.000091     0.000000    -0.000011
 MO|   17     1  O  1d+1     -0.000000    -0.000000     0.000000    -0.000000
 MO|   18     1  O  1d+2     -0.000000    -0.000003    -0.000000    -0.000000
 MO|   19     1  O  1d-2     -0.000000    -0.001442    -0.000000    -0.000005
 MO|   20     1  O  1d-1     -0.000000     0.000000    -0.000001     0.000000
 MO|   21     1  O  1d0      -0.000000    -0.000955    -0.000000     0.000048
 MO|   22     1  O  1d+1      0.000000    -0.000000    -0.000001     0.000000
 MO|   23     1  O  1d+2     -0.000000    -0.000021    -0.000000    -0.000000
 MO|   24     1  O  1f-3     -0.000837    -0.000000     0.000266     0.000000
 MO|   25     1  O  1f-2      0.000000    -0.000001    -0.000000     0.000301
 MO|   26     1  O  1f-1      0.000668    -0.000000     0.000067     0.000000
 MO|   27     1  O  1f0       0.000000    -0.000001    -0.000000     0.000233
 MO|   28     1  O  1f+1     -0.000658    -0.000000     0.000068     0.000000
 MO|   29     1  O  1f+2     -0.000000    -0.000000    -0.000000     0.000004
 MO|   30     1  O  1f+3     -0.000875     0.000000    -0.000255    -0.000000
 MO|   31     1  O  1s        0.000000     1.510066     0.000000     0.004822
 MO|   32     1  O  1py       0.012940     0.000000    -0.819843    -0.000000
 MO|   33     1  O  1pz       0.000000     0.003806     0.000000    -1.167984
 MO|   34     1  O  1px      -0.012750     0.000000    -0.832065    -0.000000
 MO|   35     1  O  1d-2      0.000000     0.006251     0.000000     0.000021
 MO|   36     1  O  1d-1      0.000001    -0.000000     0.000002    -0.000000
 MO|   37     1  O  1d0      -0.000000     0.004053     0.000000    -0.000174
 MO|   38     1  O  1d+1     -0.000001     0.000000     0.000002    -0.000000
 MO|   39     1  O  1d+2     -0.000000     0.000092     0.000000     0.000000
 MO|   40     1  O  1f-3     -0.000811     0.000000    -0.000261    -0.000000
 MO|   41     1  O  1f-2      0.000000     0.000001     0.000000    -0.000295
[...]
 MO|
 MO|                          0.000000     0.000000     0.000000     0.000000
 MO|
 MO|    1     1  O  1s        0.000019     0.000000    -0.062752     0.000000
 MO|    2     1  O  2s        0.000037    -0.000000     0.037399    -0.000000
 MO|    3     1  O  1s       -0.000001    -0.000000     0.044815    -0.000000
 MO|    4     1  O  1s       -0.000116    -0.000000     0.959149    -0.000000
 MO|    5     1  O  1py      -0.000000    -0.075319     0.000000     0.166487
 MO|    6     1  O  1pz      -0.195507    -0.000000     0.000089    -0.000000
 MO|    7     1  O  1px      -0.000000     0.074212     0.000000     0.168970
 MO|    8     1  O  1py      -0.000000    -0.046814     0.000000     0.155089
 MO|    9     1  O  1pz      -0.268080    -0.000000     0.000018    -0.000000
 MO|   10     1  O  1px      -0.000000     0.046126     0.000000     0.157403
 MO|   11     1  O  1py      -0.000000    -0.294430     0.000000     0.521579
 MO|   12     1  O  1pz      -0.227396    -0.000000     0.000429    -0.000000
 MO|   13     1  O  1px      -0.000000     0.290102     0.000000     0.529358
 MO|   14     1  O  1d-2      0.000000     0.000000    -0.001632     0.000000
 MO|   15     1  O  1d-1     -0.000000    -0.000000     0.000000     0.000000
 MO|   16     1  O  1d0       0.000005     0.000000    -0.000969     0.000000
 MO|   17     1  O  1d+1     -0.000000     0.000000    -0.000000     0.000000
 MO|   18     1  O  1d+2      0.000000    -0.000000    -0.000024     0.000000
 MO|   19     1  O  1d-2     -0.000000    -0.000000     0.001319     0.000000
 MO|   20     1  O  1d-1      0.000000     0.000000    -0.000000    -0.000001
 MO|   21     1  O  1d0      -0.000029    -0.000000     0.000909    -0.000000
 MO|   22     1  O  1d+1      0.000000    -0.000000     0.000000    -0.000001
 MO|   23     1  O  1d+2     -0.000000     0.000000     0.000020    -0.000000
 MO|   24     1  O  1f-3      0.000000     0.000114    -0.000000    -0.000318
 MO|   25     1  O  1f-2      0.000692    -0.000000    -0.000000     0.000000
 MO|   26     1  O  1f-1      0.000000    -0.000091    -0.000000    -0.000080
 MO|   27     1  O  1f0       0.000537    -0.000000    -0.000000     0.000000
 MO|   28     1  O  1f+1      0.000000     0.000090    -0.000000    -0.000081
 MO|   29     1  O  1f+2      0.000010     0.000000    -0.000000    -0.000000
 MO|   30     1  O  1f+3     -0.000000     0.000119     0.000000     0.000305
 MO|   31     1  O  1s        0.000140     0.000000    -1.543098     0.000000
 MO|   32     1  O  1py      -0.000000     0.844085     0.000000    -0.723518
 MO|   33     1  O  1pz      -0.642566     0.000000    -0.000578     0.000000
 MO|   34     1  O  1px      -0.000000    -0.831679    -0.000000    -0.734310
 MO|   35     1  O  1d-2     -0.000000     0.000000    -0.009309    -0.000000
 MO|   36     1  O  1d-1     -0.000000    -0.000002     0.000000     0.000005
 MO|   37     1  O  1d0       0.000096     0.000000    -0.005877     0.000000
 MO|   38     1  O  1d+1     -0.000000     0.000002    -0.000000     0.000005
 MO|   39     1  O  1d+2     -0.000000    -0.000000    -0.000138     0.000000
 MO|   40     1  O  1f-3     -0.000000    -0.000529    -0.000000    -0.000428
 MO|   41     1  O  1f-2     -0.000073     0.000000     0.000000     0.000000
 MO|   42     1  O  1f-1     -0.000000     0.000422     0.000000    -0.000108
 MO|   43     1  O  1f0      -0.000056     0.000000    -0.000000     0.000000
 MO|   44     1  O  1f+1     -0.000000    -0.000416    -0.000000    -0.000109
 MO|   45     1  O  1f+2     -0.000001    -0.000000     0.000000    -0.000000
 MO|   46     1  O  1f+3      0.000000    -0.000553    -0.000000     0.000410
 MO|
 MO|                             9
 MO|                          0.227033
 MO|
 MO|                          0.000000
 MO|
 MO|    1     1  O  1s       -0.000023
 MO|    2     1  O  2s       -0.000152
 MO|    3     1  O  1s       -0.000028
 MO|    4     1  O  1s       -0.000292
 MO|    5     1  O  1py       0.000000
 MO|    6     1  O  1pz       0.237308
 MO|    7     1  O  1px       0.000000
 MO|    8     1  O  1py       0.000000
 MO|    9     1  O  1pz       0.221378
 MO|   10     1  O  1px       0.000000
 MO|   11     1  O  1py       0.000000
 MO|   12     1  O  1pz       0.742725
 MO|   13     1  O  1px       0.000000
 MO|   14     1  O  1d-2      0.000001
 MO|   15     1  O  1d-1     -0.000000
 MO|   16     1  O  1d0      -0.000021
 MO|   17     1  O  1d+1     -0.000000
 MO|   18     1  O  1d+2      0.000000
 MO|   19     1  O  1d-2     -0.000002
 MO|   20     1  O  1d-1      0.000000
 MO|   21     1  O  1d0       0.000120
 MO|   22     1  O  1d+1      0.000000
 MO|   23     1  O  1d+2     -0.000000
 MO|   24     1  O  1f-3     -0.000000
 MO|   25     1  O  1f-2     -0.000360
 MO|   26     1  O  1f-1      0.000000
 MO|   27     1  O  1f0      -0.000279
 MO|   28     1  O  1f+1     -0.000000
 MO|   29     1  O  1f+2     -0.000005
 MO|   30     1  O  1f+3      0.000000
 MO|   31     1  O  1s        0.000669
 MO|   32     1  O  1py      -0.000000
 MO|   33     1  O  1pz      -1.030519
 MO|   34     1  O  1px      -0.000000
 MO|   35     1  O  1d-2      0.000008
 MO|   36     1  O  1d-1     -0.000000
 MO|   37     1  O  1d0      -0.000430
 MO|   38     1  O  1d+1     -0.000000
 MO|   39     1  O  1d+2      0.000000
 MO|   40     1  O  1f-3     -0.000000
 MO|   41     1  O  1f-2     -0.000485
 MO|   42     1  O  1f-1      0.000000
 MO|   43     1  O  1f0      -0.000377
 MO|   44     1  O  1f+1     -0.000000
 MO|   45     1  O  1f+2     -0.000007
 MO|   46     1  O  1f+3      0.000000
 MO|
 MO| E(Fermi):           -0.521851 a.u.        -14.200301 eV
 MO| Band gap:            0.586695 a.u.         15.964773 eV


  Integrated absolute spin density  :                               1.8887347131
  Ideal and single determinant S**2 :                    2.000000       2.009199

 The sum of alpha and beta density is written in cube file format to the file:

 o2-ELECTRON_DENSITY-1_0.cube

 The spin density is written in cube file format to the file:

 o2-SPIN_DENSITY-1_0.cube


 LOWDIN POPULATION ANALYSIS

 #  Atom  Element  Kind  Atomic population (alpha,beta) Net charge  Spin moment
       1     O        1         5.000000     3.000000     0.000000     2.000000
 # Total charge and spin        5.000000     3.000000     0.000000     2.000000

  
  Eigenvalues of the occupied subspace spin            1
 ---------------------------------------------
     -20.71085736      -1.41958723      -0.71103451      -0.71103029
      -0.61185840
 Fermi Energy [eV] :  -16.649514
  
  Eigenvalues of the occupied subspace spin            2
 ---------------------------------------------
     -20.63236456      -1.07732143      -0.52185147
 Fermi Energy [eV] :  -14.200301
  
  Lowest eigenvalues of the unoccupied subspace spin            1
 ---------------------------------------------
       0.15313007       0.15315363       0.15555101
  
  Lowest eigenvalues of the unoccupied subspace spin            2
 ---------------------------------------------
       0.06484316       0.06485817       0.16694568

 ENERGY| Total FORCE_EVAL ( QS ) energy [a.u.]:              -74.813034321614012

 -------------------------------------------------------------------------------
 -                                                                             -
 -                                DBCSR STATISTICS                             -
 -                                                                             -
 -------------------------------------------------------------------------------
 COUNTER                                    TOTAL       BLAS       SMM       ACC
 flops    46 x     9 x    46                38088     100.0%      0.0%      0.0%
 flops    46 x    14 x    46               118496     100.0%      0.0%      0.0%
 flops    46 x    32 x    46               270848     100.0%      0.0%      0.0%
 flops    46 x    46 x     9               609408     100.0%      0.0%      0.0%
 flops    46 x    46 x    11               744832     100.0%      0.0%      0.0%
 flops inhomo. stacks                           0       0.0%      0.0%      0.0%
 flops total                         1.781672E+06     100.0%      0.0%      0.0%
 flops max/rank                      1.781672E+06     100.0%      0.0%      0.0%
 matmuls inhomo. stacks                         0       0.0%      0.0%      0.0%
 matmuls total                                 37     100.0%      0.0%      0.0%
 number of processed stacks                    37     100.0%      0.0%      0.0%
 average stack size                                     1.0       0.0       0.0
 marketing flops                   943.736000E+03
 -------------------------------------------------------------------------------
 # multiplications                             35
 max memory usage/rank             900.739072E+06
 # max total images/rank                        1
 # max 3D layers                                1
 # MPI messages exchanged                       0
 -------------------------------------------------------------------------------

 -------------------------------------------------------------------------------
 -                                                                             -
 -                                DBM STATISTICS                               -
 -                                                                             -
 -------------------------------------------------------------------------------
    M  x    N  x    K                                          COUNT     PERCENT
 -------------------------------------------------------------------------------

 -------------------------------------------------------------------------------
 -                                                                             -
 -                                GRID STATISTICS                              -
 -                                                                             -
 -------------------------------------------------------------------------------
 LP    KERNEL             BACKEND                              COUNT     PERCENT
 2     collocate ortho    REF                                   1402      12.21%
 3     collocate ortho    REF                                   1388      12.09%
 2     integrate ortho    REF                                   1280      11.15%
 3     integrate ortho    REF                                   1280      11.15%
 1     collocate ortho    REF                                   1172      10.21%
 1     integrate ortho    REF                                   1024       8.92%
 4     collocate ortho    REF                                    850       7.40%
 4     integrate ortho    REF                                    800       6.97%
 0     collocate ortho    REF                                    684       5.96%
 0     integrate ortho    REF                                    512       4.46%
 5     collocate ortho    REF                                    408       3.55%
 5     integrate ortho    REF                                    384       3.34%
 6     collocate ortho    REF                                    136       1.18%
 6     integrate ortho    REF                                    128       1.11%
 2     collocate general  REF                                     16       0.14%
 2     integrate general  REF                                     16       0.14%
 -------------------------------------------------------------------------------

 MEMORY| Estimated peak process memory [MiB]                                 871

 -------------------------------------------------------------------------------
 -                                                                             -
 -                           R E F E R E N C E S                               -
 -                                                                             -
 -------------------------------------------------------------------------------
 
 CP2K version 2023.1 (Development Version), the CP2K developers group (2023).
 CP2K is freely available from https://www.cp2k.org/ .

 Kuehne,Thomas D.; Iannuzzi,Marcella; Del Ben,Mauro;
 Rybkin,Vladimir V.; Seewald,Patrick; Stein,Frederick; Laino,Teodoro;
 Khaliullin,Rustam Z.; Schuett,Ole; Schiffmann,Florian; Golze,Dorothea;
 Wilhelm,Jan; Chulkov,Sergey; Bani-Hashemian,Mohammad Hossein;
 Weber,Valery; Borstnik,Urban; Taillefumier,Mathieu;
 Jakobovits,Alice Shoshana; Lazzaro,Alfio; Pabst,Hans; Mueller,Tiziano;
 Schade,Robert; Guidon,Manuel; Andermatt,Samuel; Holmberg,Nico;
 Schenter,Gregory K.; Hehn,Anna; Bussy,Augustin; Belleflamme,Fabian;
 Tabacchi,Gloria; Gloess,Andreas; Lass,Michael; Bethune,Iain;
 Mundy,Christopher J.; Plessl,Christian; Watkins,Matt;
 VandeVondele,Joost; Krack,Matthias; Hutter,Juerg. 
 The Journal of Chemical Physics, 152 (19), (2020). 
 CP2K: An electronic structure and molecular dynamics software package -
 Quickstep: Efficient and accurate electronic structure calculations.
 https://doi.org/10.1063/5.0007045

 Schuett, Ole; Messmer, Peter; Hutter, Juerg; VandeVondele, Joost. 
 Electronic Structure Calculations on Graphics Processing Units, John
 Wiley & Sons, Ltd, 173-190 (2016). 
 GPU-Accelerated Sparse Matrix-Matrix Multiplication for
 Linear Scaling Density Functional Theory.
 https://doi.org/10.1002/9781118670712.ch8

 Borstnik, U; VandeVondele, J; Weber, V; Hutter, J. 
 PARALLEL COMPUTING, 40 (5-6), 47-58 (2014). 
 Sparse matrix multiplication: The distributed block-compressed sparse
 row library.
 https://doi.org/10.1016/j.parco.2014.03.012

 Hutter, J; Iannuzzi, M; Schiffmann, F; VandeVondele, J. 
 WIREs Comput Mol Sci., 4 (1), 15-25 (2014). 
 CP2K: atomistic simulations of condensed matter systems.
 https://doi.org/10.1002/wcms.1159

 Guidon, M; Hutter, J; VandeVondele, J. 
 JOURNAL OF CHEMICAL THEORY AND COMPUTATION, 5 (11), 3010-3021 (2009). 
 Robust Periodic Hartree-Fock Exchange for Large-Scale Simulations Using
 Gaussian Basis Sets.
 https://doi.org/10.1021/ct900494g

 Guidon, M; Schiffmann, F; Hutter, J; VandeVondele, J. 
 JOURNAL OF CHEMICAL PHYSICS, 128 (21), 214104 (2008). 
 Ab initio molecular dynamics using hybrid density functionals.
 https://doi.org/10.1063/1.2931945

 Genovese, L; Deutsch, T; Goedecker, S. 
 JOURNAL OF CHEMICAL PHYSICS, 127 (5), 054704 (2007). 
 Efficient and accurate three-dimensional Poisson solver for surface
 problems.
 https://doi.org/10.1063/1.2754685

 Genovese, L; Deutsch, T; Neelov, A; Goedecker, S; Beylkin, G. 
 JOURNAL OF CHEMICAL PHYSICS, 125 (7), 074105 (2006). 
 Efficient solution of Poisson's equation with free boundary conditions.
 https://doi.org/10.1063/1.2335442

 Frigo, M; Johnson, SG. 
 PROCEEDINGS OF THE IEEE, 93 (2), 216-231 (2005). 
 The design and implementation of FFTW3.
 https://doi.org/10.1109/JPROC.2004.840301

 Lippert, G; Hutter, J; Parrinello, M. 
 THEORETICAL CHEMISTRY ACCOUNTS, 103 (2), 124-140 (1999). 
 The Gaussian and augmented-plane-wave density functional method for ab
 initio molecular dynamics simulations.
 https://doi.org/10.1007/s002140050523

 Krack, M; Parrinello, M. 
 PHYSICAL CHEMISTRY CHEMICAL PHYSICS, 2 (10), 2105-2112 (2000). 
 All-electron ab-initio molecular dynamics.
 https://doi.org/10.1039/b001167n


 -------------------------------------------------------------------------------
 -                                                                             -
 -                                T I M I N G                                  -
 -                                                                             -
 -------------------------------------------------------------------------------
 SUBROUTINE                       CALLS  ASD         SELF TIME        TOTAL TIME
                                MAXIMUM       AVERAGE  MAXIMUM  AVERAGE  MAXIMUM
 CP2K                                 1  1.0    0.174    0.174   51.768   51.768
 qs_energies                          1  2.0    0.014    0.014   50.243   50.243
 scf_env_do_scf                       1  3.0    0.001    0.001   40.215   40.215
 scf_env_do_scf_inner_loop           16  4.0    0.002    0.002   40.210   40.210
 qs_ks_update_qs_env                 16  5.0    0.000    0.000   29.102   29.102
 rebuild_ks_matrix                   16  6.0    0.000    0.000   29.101   29.101
 qs_ks_build_kohn_sham_matrix        16  7.0    0.014    0.014   29.101   29.101
 pw_transfer                        448  8.8    0.025    0.025   28.027   28.027
 fft_wrap_pw1pw2                    432  9.7    0.003    0.003   27.927   27.927
 fft_wrap_pw1pw2_200                192 10.5    3.453    3.453   25.546   25.546
 pw_poisson_solve                    16  8.0    0.941    0.941   15.115   15.115
 fft3d_s                            433 11.7   11.957   11.957   11.980   11.980
 qs_rho_update_rho_low               17  5.0    0.001    0.001   11.819   11.819
 calculate_rho_elec                  34  6.0    0.414    0.414   11.807   11.807
 density_rs2pw                       34  7.0    0.003    0.003   10.885   10.885
 scf_post_calculation_gpw             1  3.0    0.007    0.007    9.104    9.104
 pw_gather_s                        256 11.1    7.279    7.279    7.279    7.279
 ps_wavelet_solve                    16  9.0    6.915    6.915    7.113    7.113
 sum_up_and_integrate                16  8.0    0.003    0.003    5.952    5.952
 integrate_v_rspace                  32  9.0    0.001    0.001    5.948    5.948
 potential_pw2rs                     32 10.0    0.016    0.016    5.637    5.637
 pw_scatter_s                       176 12.6    5.095    5.095    5.095    5.095
 qs_scf_post_occ_cubes                2  4.0    0.082    0.082    4.850    4.850
 pw_to_cube                          16  5.1    4.428    4.428    4.466    4.466
 calculate_wavefunction              14  5.0    0.016    0.016    4.402    4.402
 qs_scf_post_unocc_cubes              2  4.0    0.065    0.065    3.587    3.587
 prepare_gapw_den                    16  8.0    0.001    0.001    2.869    2.869
 put_rho0_on_grid                    16  9.0    0.196    0.196    2.679    2.679
 hfx_ks_matrix                       16  8.0    0.003    0.003    2.337    2.337
 integrate_four_center               16  9.0    0.010    0.010    2.333    2.333
 fft_wrap_pw1pw2_70                  80 10.8    0.099    0.099    2.008    2.008
 pw_poisson_rebuild                  16  9.0    0.000    0.000    1.196    1.196
 ps_wavelet_create                    1 10.0    0.000    0.000    1.196    1.196
 RS_z_slice_distribution              1 11.0    1.196    1.196    1.196    1.196
 qs_init_subsys                       1  2.0    0.042    0.042    1.159    1.159
 integrate_four_center_main          16 10.0    0.001    0.001    1.140    1.140
 integrate_four_center_bin           16 11.0    1.138    1.138    1.138    1.138
 qs_env_setup                         1  3.0    0.004    0.004    1.070    1.070
 qs_env_rebuild_pw_env                2  3.5    0.001    0.001    1.062    1.062
 pw_env_rebuild                       1  5.0    0.008    0.008    1.061    1.061
 pw_grid_setup                        4  6.0    0.003    0.003    1.045    1.045
 pw_grid_setup_internal               4  7.0    0.032    0.032    1.042    1.042
 -------------------------------------------------------------------------------

 The number of warnings for this run is : 1
 
 -------------------------------------------------------------------------------
  **** **** ******  **  PROGRAM ENDED AT                 2023-04-01 17:53:12.063
 ***** ** ***  *** **   PROGRAM RAN ON                               eu-g5-025-1
 **    ****   ******    PROGRAM RAN BY                                   fcambie
 ***** **    ** ** **   PROGRAM PROCESS ID                                 31611
  **** **  *******  **  PROGRAM STOPPED IN /cluster/home/fcambie/exercise6/tripl
                                           et_mol/diffs/o2
