 DBCSR| CPU Multiplication driver                                           BLAS (U)
 DBCSR| Multrec recursion limit                                              512 (U)
 DBCSR| Multiplication stack size                                           1000 (D)
 DBCSR| Maximum elements for images                                    UNLIMITED (U)
 DBCSR| Multiplicative factor virtual images                                   1 (U)
 DBCSR| Use multiplication densification                                       T (D)
 DBCSR| Multiplication size stacks                                             3 (U)
 DBCSR| Use memory pool for CPU allocation                                     F (U)
 DBCSR| OMP: Current number of threads                                         1
 DBCSR| OMP: Max number of threads                                             1
 DBCSR| Split modifier for TAS multiplication algorithm                  1.0E+00 (U)


  **** **** ******  **  PROGRAM STARTED AT               2023-04-01 15:45:11.196
 ***** ** ***  *** **   PROGRAM STARTED ON                           eu-g5-035-3
 **    ****   ******    PROGRAM STARTED BY                               fcambie
 ***** **    ** ** **   PROGRAM PROCESS ID                                 31570
  **** **  *******  **  PROGRAM STARTED IN /cluster/home/fcambie/exercise6/tripl
                                           et_mol

 CP2K| version string:                 CP2K version 2023.1 (Development Version)
 CP2K| source code revision number:                                  git:dc34ec9
 CP2K| cp2kflags: omp libint fftw3 libxc max_contr=4 spglib libvori libbqb      
 CP2K| is freely available from                            https://www.cp2k.org/
 CP2K| Program compiled at                         Mon Mar 27 23:22:21 CEST 2023
 CP2K| Program compiled on                                           eu-g5-025-4
 CP2K| Program compiled for                              Linux-gnu-x86_64-static
 CP2K| Data directory path                   /cluster/scratch/danielep/cp2k/data
 CP2K| Input file name                                               triplet.inp

 GLOBAL| Force Environment number                                              1
 GLOBAL| Basis set file name            /cluster/apps/nss/gcc-6.3.0/cp2k/8.2/x86
 GLOBAL| Potential file name            /cluster/apps/nss/gcc-6.3.0/cp2k/8.2/x86
 GLOBAL| MM Potential file name                                     MM_POTENTIAL
 GLOBAL| Coordinate file name                                      __STD_INPUT__
 GLOBAL| Method name                                                        CP2K
 GLOBAL| Project name                                                         o2
 GLOBAL| Run type                                                         ENERGY
 GLOBAL| FFT library                                                       FFTW3
 GLOBAL| Diagonalization library                                       ScaLAPACK
 GLOBAL| DGEMM library                                                      BLAS
 GLOBAL| Orthonormality check for eigenvectors                          DISABLED
 GLOBAL| Matrix multiplication library                                 ScaLAPACK
 GLOBAL| All-to-all communication in single precision                          F
 GLOBAL| FFTs using library dependent lengths                                  F
 GLOBAL| Grid backend                                                       AUTO
 GLOBAL| Global print level                                                  LOW
 GLOBAL| MPI I/O enabled                                                       T
 GLOBAL| Total number of message passing processes                             1
 GLOBAL| Number of threads for this process                                    1
 GLOBAL| This output is from process                                           0
 GLOBAL| Stack size for threads created by OpenMP (OMP_STACKSIZE)        default
 GLOBAL| CPU model name                          AMD EPYC 7742 64-Core Processor

 MEMORY| system memory details [Kb]
 MEMORY|                        rank 0           min           max       average
 MEMORY| MemTotal            525874016     525874016     525874016     525874016
 MEMORY| MemFree             434335072     434335072     434335072     434335072
 MEMORY| Buffers                     0             0             0             0
 MEMORY| Cached               28627468      28627468      28627468      28627468
 MEMORY| Slab                  3952224       3952224       3952224       3952224
 MEMORY| SReclaimable           643396        643396        643396        643396
 MEMORY| MemLikelyFree       463605936     463605936     463605936     463605936


 GENERATE|  Preliminary Number of Bonds generated:                             0
 GENERATE|  Achieved consistency in connectivity generation.

 *******************************************************************************
 *******************************************************************************
 **                                                                           **
 **     #####                         ##              ##                      **
 **    ##   ##            ##          ##              ##                      **
 **   ##     ##                       ##            ######                    **
 **   ##     ##  ##   ##  ##   #####  ##  ##   ####   ##    #####    #####    **
 **   ##     ##  ##   ##  ##  ##      ## ##   ##      ##   ##   ##  ##   ##   **
 **   ##  ## ##  ##   ##  ##  ##      ####     ###    ##   ######   ######    **
 **    ##  ###   ##   ##  ##  ##      ## ##      ##   ##   ##       ##        **
 **     #######   #####   ##   #####  ##  ##  ####    ##    #####   ##        **
 **           ##                                                    ##        **
 **                                                                           **
 **                                                ... make the atoms dance   **
 **                                                                           **
 **            Copyright (C) by CP2K developers group (2000-2023)             **
 **                      J. Chem. Phys. 152, 194103 (2020)                    **
 **                                                                           **
 *******************************************************************************


 TOTAL NUMBERS AND MAXIMUM NUMBERS

  Total number of            - Atomic kinds:                                   2
                             - Atoms:                                          2
                             - Shell sets:                                    26
                             - Shells:                                        28
                             - Primitive Cartesian functions:                 44
                             - Cartesian basis functions:                    110
                             - Spherical basis functions:                     92

  Maximum angular momentum of the orbital basis functions:                     3


 SCF PARAMETERS         Density guess:                                   RESTART
                        --------------------------------------------------------
                        max_scf:                                            2000
                        max_scf_history:                                       0
                        max_diis:                                              4
                        --------------------------------------------------------
                        eps_scf:                                        1.00E-06
                        eps_scf_history:                                0.00E+00
                        eps_diis:                                       1.00E-01
                        eps_eigval:                                     1.00E-05
                        --------------------------------------------------------
                        level_shift [a.u.]:                             0.000000
                        added MOs                                         6    6
                        --------------------------------------------------------
                        Mixing method:                           DIRECT_P_MIXING
                        --------------------------------------------------------
                        No outer SCF

 Spin 1

 Number of electrons:                                                          9
 Number of occupied orbitals:                                                  9
 Number of molecular orbitals:                                                15

 Spin 2

 Number of electrons:                                                          7
 Number of occupied orbitals:                                                  7
 Number of molecular orbitals:                                                13

 Number of orbital functions:                                                 92
 Number of independent orbital functions:                                     92

 Extrapolation method: initial_guess

 *** WARNING in qs_initial_guess.F:305 :: User requested to restart the   ***
 *** wavefunction from the file named: o2-RESTART.wfn. This file does not ***
 *** exist. Please check the existence of the file or change properly the ***
 *** value of the keyword WFN_RESTART_FILE_NAME. Calculation continues    ***
 *** using ATOMIC GUESS.                                                  ***



 SCF WAVEFUNCTION OPTIMIZATION

  Step     Update method      Time    Convergence         Total energy    Change
  ------------------------------------------------------------------------------

 MO| ALPHA EIGENVALUES, OCCUPATION NUMBERS, AND SPHERICAL EIGENVECTORS AFTER SCF STEP 0
 MO|
 MO|                             1            2            3            4
 MO|                        -20.774231   -20.771679    -2.006170    -1.179741
 MO|
 MO|                          1.000000     1.000000     1.000000     1.000000
 MO|
 MO|    1     1  O  1s        0.688594     0.688006    -0.009193     0.002584
 MO|    2     1  O  2s       -0.001117    -0.002931     0.358112     0.410405
 MO|    3     1  O  1s        0.032395     0.032558     0.096602     0.116291
 MO|    4     1  O  1s        0.002390     0.008833     0.149980     0.319809
 MO|    5     1  O  1py       0.000000     0.000000     0.000000     0.000000
 MO|    6     1  O  1pz       0.000881     0.000263     0.097886    -0.091104
 MO|    7     1  O  1px       0.000000     0.000000     0.000000     0.000000
 MO|    8     1  O  1py      -0.000000    -0.000000     0.000000     0.000000
 MO|    9     1  O  1pz       0.000177    -0.001229     0.120744    -0.108282
 MO|   10     1  O  1px      -0.000000    -0.000000     0.000000     0.000000
 MO|   11     1  O  1py       0.000000     0.000000     0.000000     0.000000
 MO|   12     1  O  1pz       0.001078     0.003725     0.034225    -0.022560
 MO|   13     1  O  1px       0.000000     0.000000     0.000000     0.000000
 MO|   14     1  O  1d-2     -0.000000    -0.000000     0.000000     0.000000
 MO|   15     1  O  1d-1     -0.000000    -0.000000     0.000000    -0.000000
 MO|   16     1  O  1d0       0.000235     0.000028     0.008233    -0.002808
 MO|   17     1  O  1d+1     -0.000000    -0.000000     0.000000    -0.000000
 MO|   18     1  O  1d+2     -0.000000     0.000000     0.000000     0.000000
 MO|   19     1  O  1d-2      0.000000     0.000000     0.000000     0.000000
 MO|   20     1  O  1d-1      0.000000    -0.000000     0.000000    -0.000000
 MO|   21     1  O  1d0       0.000148    -0.000498     0.015837    -0.004627
 MO|   22     1  O  1d+1      0.000000    -0.000000     0.000000    -0.000000
 MO|   23     1  O  1d+2      0.000000    -0.000000    -0.000000    -0.000000
 MO|   24     1  O  1f-3     -0.000000    -0.000000     0.000000     0.000000
 MO|   25     1  O  1f-2      0.000000    -0.000000    -0.000000     0.000000
 MO|   26     1  O  1f-1     -0.000000    -0.000000     0.000000    -0.000000
 MO|   27     1  O  1f0      -0.000086    -0.000026     0.004934    -0.000159
 MO|   28     1  O  1f+1     -0.000000    -0.000000     0.000000    -0.000000
 MO|   29     1  O  1f+2     -0.000000     0.000000     0.000000     0.000000
 MO|   30     1  O  1f+3     -0.000000    -0.000000    -0.000000    -0.000000
 MO|   31     1  O  1s       -0.000183     0.001135     0.000782     0.015103
 MO|   32     1  O  1py      -0.000000    -0.000000    -0.000000     0.000000
 MO|   33     1  O  1pz       0.000140     0.000190    -0.001928    -0.001980
 MO|   34     1  O  1px      -0.000000    -0.000000     0.000000     0.000000
 MO|   35     1  O  1d-2     -0.000000    -0.000000    -0.000000    -0.000000
 MO|   36     1  O  1d-1      0.000000    -0.000000     0.000000    -0.000000
 MO|   37     1  O  1d0       0.000812     0.000965    -0.000873     0.006355
 MO|   38     1  O  1d+1      0.000000    -0.000000     0.000000    -0.000000
 MO|   39     1  O  1d+2      0.000000    -0.000000     0.000000    -0.000000
 MO|   40     1  O  1f-3      0.000000     0.000000    -0.000000    -0.000000
 MO|   41     1  O  1f-2     -0.000000     0.000000     0.000000    -0.000000
 MO|   42     1  O  1f-1      0.000000    -0.000000     0.000000    -0.000000
 MO|   43     1  O  1f0       0.000278    -0.000105     0.000196    -0.000600
 MO|   44     1  O  1f+1      0.000000    -0.000000     0.000000    -0.000000
 MO|   45     1  O  1f+2      0.000000    -0.000000    -0.000000    -0.000000
 MO|   46     1  O  1f+3      0.000000     0.000000     0.000000     0.000000
 MO|
 MO|   47     2  O  1s        0.688594    -0.688006    -0.009193    -0.002584
 MO|   48     2  O  2s       -0.001117     0.002931     0.358112    -0.410405
 MO|   49     2  O  1s        0.032395    -0.032558     0.096602    -0.116291
 MO|   50     2  O  1s        0.002390    -0.008833     0.149980    -0.319809
 MO|   51     2  O  1py       0.000000    -0.000000     0.000000    -0.000000
 MO|   52     2  O  1pz      -0.000881     0.000263    -0.097886    -0.091104
 MO|   53     2  O  1px       0.000000    -0.000000     0.000000    -0.000000
 MO|   54     2  O  1py      -0.000000     0.000000     0.000000    -0.000000
 MO|   55     2  O  1pz      -0.000177    -0.001229    -0.120744    -0.108282
 MO|   56     2  O  1px      -0.000000     0.000000     0.000000    -0.000000
 MO|   57     2  O  1py      -0.000000    -0.000000     0.000000    -0.000000
 MO|   58     2  O  1pz      -0.001078     0.003725    -0.034225    -0.022560
 MO|   59     2  O  1px      -0.000000    -0.000000     0.000000    -0.000000
 MO|   60     2  O  1d-2     -0.000000     0.000000     0.000000    -0.000000
 MO|   61     2  O  1d-1     -0.000000     0.000000    -0.000000    -0.000000
 MO|   62     2  O  1d0       0.000235    -0.000028     0.008233     0.002808
 MO|   63     2  O  1d+1     -0.000000     0.000000    -0.000000    -0.000000
 MO|   64     2  O  1d+2     -0.000000    -0.000000     0.000000    -0.000000
 MO|   65     2  O  1d-2      0.000000    -0.000000     0.000000    -0.000000
 MO|   66     2  O  1d-1      0.000000    -0.000000    -0.000000    -0.000000
 MO|   67     2  O  1d0       0.000148     0.000498     0.015837     0.004627
 MO|   68     2  O  1d+1      0.000000    -0.000000    -0.000000    -0.000000
 MO|   69     2  O  1d+2     -0.000000     0.000000     0.000000     0.000000
 MO|   70     2  O  1f-3      0.000000     0.000000     0.000000    -0.000000
 MO|   71     2  O  1f-2      0.000000    -0.000000     0.000000     0.000000
 MO|   72     2  O  1f-1     -0.000000     0.000000     0.000000     0.000000
 MO|   73     2  O  1f0       0.000086    -0.000026    -0.004934    -0.000159
 MO|   74     2  O  1f+1     -0.000000     0.000000     0.000000     0.000000
 MO|   75     2  O  1f+2     -0.000000     0.000000     0.000000    -0.000000
 MO|   76     2  O  1f+3     -0.000000     0.000000    -0.000000     0.000000
 MO|   77     2  O  1s       -0.000183    -0.001135     0.000782    -0.015103
 MO|   78     2  O  1py      -0.000000     0.000000    -0.000000    -0.000000
 MO|   79     2  O  1pz      -0.000140     0.000190     0.001928    -0.001980
 MO|   80     2  O  1px      -0.000000     0.000000    -0.000000    -0.000000
 MO|   81     2  O  1d-2     -0.000000     0.000000    -0.000000     0.000000
 MO|   82     2  O  1d-1      0.000000    -0.000000    -0.000000    -0.000000
 MO|   83     2  O  1d0       0.000812    -0.000965    -0.000873    -0.006355
 MO|   84     2  O  1d+1      0.000000    -0.000000    -0.000000    -0.000000
 MO|   85     2  O  1d+2     -0.000000     0.000000    -0.000000     0.000000
 MO|   86     2  O  1f-3     -0.000000    -0.000000    -0.000000     0.000000
 MO|   87     2  O  1f-2      0.000000     0.000000    -0.000000    -0.000000
 MO|   88     2  O  1f-1     -0.000000     0.000000     0.000000     0.000000
 MO|   89     2  O  1f0      -0.000278    -0.000105    -0.000196    -0.000600
 MO|   90     2  O  1f+1     -0.000000     0.000000     0.000000     0.000000
 MO|   91     2  O  1f+2      0.000000    -0.000000    -0.000000    -0.000000
 MO|   92     2  O  1f+3      0.000000    -0.000000     0.000000    -0.000000
 MO|
 MO|                             5            6            7            8
 MO|                         -0.805619    -0.805619    -0.786918    -0.371768
 MO|
 MO|                          1.000000     1.000000     1.000000     1.000000
 MO|
 MO|    1     1  O  1s        0.000000     0.000000    -0.004500    -0.000000
 MO|    2     1  O  2s        0.000000     0.000000    -0.168248    -0.000000
 MO|    3     1  O  1s        0.000000     0.000000    -0.048804    -0.000000
 MO|    4     1  O  1s        0.000000     0.000000    -0.186127    -0.000000
 MO|    5     1  O  1py       0.181550     0.178863     0.000000    -0.207226
 MO|    6     1  O  1pz      -0.000000    -0.000000     0.254853     0.000000
 MO|    7     1  O  1px      -0.178863     0.181550     0.000000     0.209444
 MO|    8     1  O  1py       0.231967     0.228533     0.000000    -0.264610
 MO|    9     1  O  1pz      -0.000000    -0.000000     0.316242     0.000000
 MO|   10     1  O  1px      -0.228533     0.231967     0.000000     0.267442
 MO|   11     1  O  1py       0.130965     0.129026     0.000000    -0.214436
 MO|   12     1  O  1pz      -0.000000    -0.000000     0.162665    -0.000000
 MO|   13     1  O  1px      -0.129026     0.130965     0.000000     0.216731
 MO|   14     1  O  1d-2      0.000000     0.000000    -0.000000     0.000000
 MO|   15     1  O  1d-1      0.005103     0.005027     0.000000     0.002566
 MO|   16     1  O  1d0      -0.000000    -0.000000     0.006923    -0.000000
 MO|   17     1  O  1d+1     -0.005027     0.005103     0.000000    -0.002593
 MO|   18     1  O  1d+2     -0.000000     0.000000    -0.000000     0.000000
 MO|   19     1  O  1d-2      0.000000     0.000000    -0.000000     0.000000
 MO|   20     1  O  1d-1      0.015160     0.014935     0.000000     0.009150
 MO|   21     1  O  1d0      -0.000000    -0.000000     0.010702    -0.000000
 MO|   22     1  O  1d+1     -0.014935     0.015160     0.000000    -0.009248
 MO|   23     1  O  1d+2     -0.000000     0.000000    -0.000000     0.000000
 MO|   24     1  O  1f-3      0.000000     0.000000    -0.000000    -0.000000
 MO|   25     1  O  1f-2      0.000000     0.000000    -0.000000    -0.000000
 MO|   26     1  O  1f-1      0.003324     0.003275     0.000000     0.000514
 MO|   27     1  O  1f0      -0.000000    -0.000000     0.004697     0.000000
 MO|   28     1  O  1f+1     -0.003275     0.003324     0.000000    -0.000520
 MO|   29     1  O  1f+2     -0.000000     0.000000    -0.000000    -0.000000
 MO|   30     1  O  1f+3      0.000000    -0.000000     0.000000    -0.000000
 MO|   31     1  O  1s        0.000000     0.000000    -0.013594     0.000000
 MO|   32     1  O  1py       0.005384     0.005304     0.000000    -0.037227
 MO|   33     1  O  1pz       0.000000     0.000000     0.005966     0.000000
 MO|   34     1  O  1px      -0.005304     0.005384     0.000000     0.037625
 MO|   35     1  O  1d-2      0.000000     0.000000     0.000000     0.000000
 MO|   36     1  O  1d-1      0.002895     0.002852     0.000000     0.000163
 MO|   37     1  O  1d0      -0.000000    -0.000000     0.002435    -0.000000
 MO|   38     1  O  1d+1     -0.002852     0.002895     0.000000    -0.000164
 MO|   39     1  O  1d+2     -0.000000     0.000000     0.000000     0.000000
 MO|   40     1  O  1f-3     -0.000000    -0.000000     0.000000     0.000000
 MO|   41     1  O  1f-2      0.000000     0.000000     0.000000     0.000000
 MO|   42     1  O  1f-1      0.001931     0.001902     0.000000     0.001668
 MO|   43     1  O  1f0      -0.000000     0.000000    -0.000995    -0.000000
 MO|   44     1  O  1f+1     -0.001902     0.001931     0.000000    -0.001686
 MO|   45     1  O  1f+2     -0.000000     0.000000    -0.000000     0.000000
 MO|   46     1  O  1f+3     -0.000000     0.000000    -0.000000     0.000000
 MO|
 MO|   47     2  O  1s        0.000000     0.000000    -0.004500     0.000000
 MO|   48     2  O  2s        0.000000     0.000000    -0.168248     0.000000
 MO|   49     2  O  1s        0.000000     0.000000    -0.048804     0.000000
 MO|   50     2  O  1s        0.000000     0.000000    -0.186127     0.000000
 MO|   51     2  O  1py       0.181550     0.178863     0.000000     0.207226
 MO|   52     2  O  1pz       0.000000     0.000000    -0.254853     0.000000
 MO|   53     2  O  1px      -0.178863     0.181550     0.000000    -0.209444
 MO|   54     2  O  1py       0.231967     0.228533     0.000000     0.264610
 MO|   55     2  O  1pz       0.000000     0.000000    -0.316242     0.000000
 MO|   56     2  O  1px      -0.228533     0.231967     0.000000    -0.267442
 MO|   57     2  O  1py       0.130965     0.129026     0.000000     0.214436
 MO|   58     2  O  1pz       0.000000     0.000000    -0.162665    -0.000000
 MO|   59     2  O  1px      -0.129026     0.130965     0.000000    -0.216731
 MO|   60     2  O  1d-2      0.000000     0.000000    -0.000000    -0.000000
 MO|   61     2  O  1d-1     -0.005103    -0.005027    -0.000000     0.002566
 MO|   62     2  O  1d0      -0.000000    -0.000000     0.006923     0.000000
 MO|   63     2  O  1d+1      0.005027    -0.005103    -0.000000    -0.002593
 MO|   64     2  O  1d+2     -0.000000     0.000000    -0.000000    -0.000000
 MO|   65     2  O  1d-2      0.000000     0.000000    -0.000000    -0.000000
 MO|   66     2  O  1d-1     -0.015160    -0.014935    -0.000000     0.009150
 MO|   67     2  O  1d0      -0.000000    -0.000000     0.010702     0.000000
 MO|   68     2  O  1d+1      0.014935    -0.015160    -0.000000    -0.009248
 MO|   69     2  O  1d+2     -0.000000     0.000000     0.000000    -0.000000
 MO|   70     2  O  1f-3      0.000000     0.000000    -0.000000     0.000000
 MO|   71     2  O  1f-2     -0.000000    -0.000000     0.000000    -0.000000
 MO|   72     2  O  1f-1      0.003324     0.003275     0.000000    -0.000514
 MO|   73     2  O  1f0       0.000000     0.000000    -0.004697     0.000000
 MO|   74     2  O  1f+1     -0.003275     0.003324     0.000000     0.000520
 MO|   75     2  O  1f+2      0.000000    -0.000000     0.000000    -0.000000
 MO|   76     2  O  1f+3      0.000000    -0.000000     0.000000     0.000000
 MO|   77     2  O  1s        0.000000     0.000000    -0.013594    -0.000000
 MO|   78     2  O  1py       0.005384     0.005304     0.000000     0.037227
 MO|   79     2  O  1pz      -0.000000     0.000000    -0.005966     0.000000
 MO|   80     2  O  1px      -0.005304     0.005384     0.000000    -0.037625
 MO|   81     2  O  1d-2      0.000000     0.000000     0.000000    -0.000000
 MO|   82     2  O  1d-1     -0.002895    -0.002852    -0.000000     0.000163
 MO|   83     2  O  1d0      -0.000000    -0.000000     0.002435     0.000000
 MO|   84     2  O  1d+1      0.002852    -0.002895    -0.000000    -0.000164
 MO|   85     2  O  1d+2     -0.000000     0.000000    -0.000000    -0.000000
 MO|   86     2  O  1f-3     -0.000000    -0.000000     0.000000    -0.000000
 MO|   87     2  O  1f-2     -0.000000    -0.000000    -0.000000     0.000000
 MO|   88     2  O  1f-1      0.001931     0.001902     0.000000    -0.001668
 MO|   89     2  O  1f0      -0.000000     0.000000     0.000995    -0.000000
 MO|   90     2  O  1f+1     -0.001902     0.001931     0.000000     0.001686
 MO|   91     2  O  1f+2      0.000000    -0.000000     0.000000     0.000000
 MO|   92     2  O  1f+3     -0.000000     0.000000    -0.000000    -0.000000
 MO|
 MO|                             9           10           11           12
 MO|                         -0.371768     0.084148     0.135278     0.151471
 MO|
 MO|                          1.000000     0.000000     0.000000     0.000000
 MO|
 MO|    1     1  O  1s        0.000000     0.003933     0.002672    -0.000000
 MO|    2     1  O  2s        0.000000    -0.116975     0.095488     0.000000
 MO|    3     1  O  1s        0.000000    -0.033593     0.039050     0.000000
 MO|    4     1  O  1s        0.000000    -1.174805     0.618475     0.000000
 MO|    5     1  O  1py      -0.209444    -0.000000     0.000000     0.047015
 MO|    6     1  O  1pz      -0.000000    -0.085550    -0.047037    -0.000000
 MO|    7     1  O  1px      -0.207226    -0.000000     0.000000    -0.047405
 MO|    8     1  O  1py      -0.267442    -0.000000     0.000000     0.030391
 MO|    9     1  O  1pz      -0.000000    -0.143243     0.017352    -0.000000
 MO|   10     1  O  1px      -0.264610    -0.000000     0.000000    -0.030643
 MO|   11     1  O  1py      -0.216731    -0.000000     0.000000     0.169431
 MO|   12     1  O  1pz       0.000000    -1.037756    -0.297866    -0.000000
 MO|   13     1  O  1px      -0.214436    -0.000000     0.000000    -0.170837
 MO|   14     1  O  1d-2     -0.000000    -0.000000     0.000000     0.000000
 MO|   15     1  O  1d-1      0.002593     0.000000     0.000000     0.001579
 MO|   16     1  O  1d0       0.000000     0.006666     0.005349     0.000000
 MO|   17     1  O  1d+1      0.002566     0.000000     0.000000    -0.001592
 MO|   18     1  O  1d+2      0.000000    -0.000000     0.000000     0.000000
 MO|   19     1  O  1d-2     -0.000000     0.000000    -0.000000    -0.000000
 MO|   20     1  O  1d-1      0.009248    -0.000000     0.000000     0.007019
 MO|   21     1  O  1d0       0.000000    -0.009987    -0.013165    -0.000000
 MO|   22     1  O  1d+1      0.009150    -0.000000     0.000000    -0.007077
 MO|   23     1  O  1d+2      0.000000     0.000000    -0.000000    -0.000000
 MO|   24     1  O  1f-3     -0.000000     0.000000    -0.000000     0.000000
 MO|   25     1  O  1f-2      0.000000     0.000000     0.000000     0.000000
 MO|   26     1  O  1f-1      0.000520    -0.000000     0.000000     0.002339
 MO|   27     1  O  1f0      -0.000000     0.000741     0.004547     0.000000
 MO|   28     1  O  1f+1      0.000514    -0.000000     0.000000    -0.002358
 MO|   29     1  O  1f+2     -0.000000    -0.000000     0.000000     0.000000
 MO|   30     1  O  1f+3      0.000000    -0.000000     0.000000     0.000000
 MO|   31     1  O  1s       -0.000000    -5.890223    -0.975217    -0.000000
 MO|   32     1  O  1py      -0.037625     0.000000    -0.000000    -0.442544
 MO|   33     1  O  1pz      -0.000000    -2.147438     0.686217     0.000000
 MO|   34     1  O  1px      -0.037227     0.000000    -0.000000     0.446216
 MO|   35     1  O  1d-2     -0.000000    -0.000000     0.000000     0.000000
 MO|   36     1  O  1d-1      0.000164     0.000000    -0.000000    -0.009182
 MO|   37     1  O  1d0       0.000000    -0.230576    -0.100667     0.000000
 MO|   38     1  O  1d+1      0.000163     0.000000    -0.000000     0.009258
 MO|   39     1  O  1d+2      0.000000    -0.000000     0.000000     0.000000
 MO|   40     1  O  1f-3      0.000000    -0.000000     0.000000     0.000000
 MO|   41     1  O  1f-2     -0.000000    -0.000000    -0.000000    -0.000000
 MO|   42     1  O  1f-1      0.001686     0.000000    -0.000000    -0.003418
 MO|   43     1  O  1f0       0.000000    -0.019435    -0.038562    -0.000000
 MO|   44     1  O  1f+1      0.001668     0.000000    -0.000000     0.003446
 MO|   45     1  O  1f+2      0.000000     0.000000     0.000000    -0.000000
 MO|   46     1  O  1f+3     -0.000000     0.000000    -0.000000     0.000000
 MO|
 MO|   47     2  O  1s       -0.000000    -0.003933     0.002672    -0.000000
 MO|   48     2  O  2s       -0.000000     0.116975     0.095488     0.000000
 MO|   49     2  O  1s       -0.000000     0.033593     0.039050     0.000000
 MO|   50     2  O  1s       -0.000000     1.174805     0.618475     0.000000
 MO|   51     2  O  1py       0.209444     0.000000     0.000000     0.047015
 MO|   52     2  O  1pz      -0.000000    -0.085550     0.047037     0.000000
 MO|   53     2  O  1px       0.207226     0.000000     0.000000    -0.047405
 MO|   54     2  O  1py       0.267442     0.000000     0.000000     0.030391
 MO|   55     2  O  1pz      -0.000000    -0.143243    -0.017352     0.000000
 MO|   56     2  O  1px       0.264610     0.000000     0.000000    -0.030643
 MO|   57     2  O  1py       0.216731     0.000000     0.000000     0.169431
 MO|   58     2  O  1pz       0.000000    -1.037756     0.297866     0.000000
 MO|   59     2  O  1px       0.214436     0.000000     0.000000    -0.170837
 MO|   60     2  O  1d-2      0.000000     0.000000     0.000000     0.000000
 MO|   61     2  O  1d-1      0.002593     0.000000    -0.000000    -0.001579
 MO|   62     2  O  1d0      -0.000000    -0.006666     0.005349     0.000000
 MO|   63     2  O  1d+1      0.002566     0.000000    -0.000000     0.001592
 MO|   64     2  O  1d+2     -0.000000     0.000000    -0.000000     0.000000
 MO|   65     2  O  1d-2      0.000000    -0.000000    -0.000000    -0.000000
 MO|   66     2  O  1d-1      0.009248    -0.000000    -0.000000    -0.007019
 MO|   67     2  O  1d0      -0.000000     0.009987    -0.013165    -0.000000
 MO|   68     2  O  1d+1      0.009150    -0.000000    -0.000000     0.007077
 MO|   69     2  O  1d+2     -0.000000    -0.000000    -0.000000    -0.000000
 MO|   70     2  O  1f-3      0.000000    -0.000000    -0.000000     0.000000
 MO|   71     2  O  1f-2      0.000000     0.000000    -0.000000    -0.000000
 MO|   72     2  O  1f-1     -0.000520     0.000000     0.000000     0.002339
 MO|   73     2  O  1f0      -0.000000     0.000741    -0.004547    -0.000000
 MO|   74     2  O  1f+1     -0.000514     0.000000     0.000000    -0.002358
 MO|   75     2  O  1f+2     -0.000000    -0.000000    -0.000000    -0.000000
 MO|   76     2  O  1f+3     -0.000000     0.000000     0.000000     0.000000
 MO|   77     2  O  1s        0.000000     5.890223    -0.975217    -0.000000
 MO|   78     2  O  1py       0.037625    -0.000000    -0.000000    -0.442544
 MO|   79     2  O  1pz      -0.000000    -2.147438    -0.686217    -0.000000
 MO|   80     2  O  1px       0.037227    -0.000000    -0.000000     0.446216
 MO|   81     2  O  1d-2      0.000000     0.000000     0.000000     0.000000
 MO|   82     2  O  1d-1      0.000164     0.000000     0.000000     0.009182
 MO|   83     2  O  1d0      -0.000000     0.230576    -0.100667     0.000000
 MO|   84     2  O  1d+1      0.000163     0.000000     0.000000    -0.009258
 MO|   85     2  O  1d+2     -0.000000    -0.000000    -0.000000     0.000000
 MO|   86     2  O  1f-3     -0.000000     0.000000     0.000000     0.000000
 MO|   87     2  O  1f-2     -0.000000    -0.000000     0.000000     0.000000
 MO|   88     2  O  1f-1     -0.001686    -0.000000    -0.000000    -0.003418
 MO|   89     2  O  1f0       0.000000    -0.019435     0.038562     0.000000
 MO|   90     2  O  1f+1     -0.001668    -0.000000    -0.000000     0.003446
 MO|   91     2  O  1f+2      0.000000     0.000000     0.000000     0.000000
 MO|   92     2  O  1f+3      0.000000    -0.000000    -0.000000     0.000000
 MO|
 MO|                            13           14           15
 MO|                          0.151471     0.198467     0.199298
 MO|
 MO|                          0.000000     0.000000     0.000000
 MO|
 MO|    1     1  O  1s       -0.000000    -0.014396    -0.000000
 MO|    2     1  O  2s        0.000000    -0.086104    -0.000000
 MO|    3     1  O  1s        0.000000    -0.031248    -0.000000
 MO|    4     1  O  1s        0.000000    -0.764004     0.000000
 MO|    5     1  O  1py      -0.047405     0.000000    -0.040968
 MO|    6     1  O  1pz      -0.000000    -0.011193    -0.000000
 MO|    7     1  O  1px      -0.047015     0.000000     0.041839
 MO|    8     1  O  1py      -0.030643     0.000000    -0.033886
 MO|    9     1  O  1pz      -0.000000    -0.072940    -0.000000
 MO|   10     1  O  1px      -0.030391     0.000000     0.034607
 MO|   11     1  O  1py      -0.170837     0.000000    -0.040500
 MO|   12     1  O  1pz      -0.000000     0.165566     0.000000
 MO|   13     1  O  1px      -0.169431     0.000000     0.041361
 MO|   14     1  O  1d-2      0.000000    -0.000000    -0.000000
 MO|   15     1  O  1d-1     -0.001592     0.000000     0.002016
 MO|   16     1  O  1d0       0.000000    -0.004395     0.000000
 MO|   17     1  O  1d+1     -0.001579     0.000000    -0.002058
 MO|   18     1  O  1d+2     -0.000000     0.000000    -0.000000
 MO|   19     1  O  1d-2     -0.000000     0.000000     0.000000
 MO|   20     1  O  1d-1     -0.007077    -0.000000    -0.016514
 MO|   21     1  O  1d0      -0.000000    -0.028710     0.000000
 MO|   22     1  O  1d+1     -0.007019    -0.000000     0.016865
 MO|   23     1  O  1d+2      0.000000    -0.000000     0.000000
 MO|   24     1  O  1f-3     -0.000000     0.000000    -0.000000
 MO|   25     1  O  1f-2      0.000000     0.000000     0.000000
 MO|   26     1  O  1f-1     -0.002358     0.000000    -0.001934
 MO|   27     1  O  1f0       0.000000    -0.008032     0.000000
 MO|   28     1  O  1f+1     -0.002339     0.000000     0.001975
 MO|   29     1  O  1f+2     -0.000000     0.000000     0.000000
 MO|   30     1  O  1f+3      0.000000    -0.000000    -0.000000
 MO|   31     1  O  1s       -0.000000     0.317575     0.000000
 MO|   32     1  O  1py       0.446216    -0.000000     1.478189
 MO|   33     1  O  1pz       0.000000     1.521860     0.000000
 MO|   34     1  O  1px       0.442544    -0.000000    -1.509621
 MO|   35     1  O  1d-2      0.000000    -0.000000    -0.000000
 MO|   36     1  O  1d-1      0.009258     0.000000     0.131773
 MO|   37     1  O  1d0       0.000000     0.319487     0.000000
 MO|   38     1  O  1d+1      0.009182     0.000000    -0.134575
 MO|   39     1  O  1d+2     -0.000000     0.000000    -0.000000
 MO|   40     1  O  1f-3     -0.000000    -0.000000     0.000000
 MO|   41     1  O  1f-2     -0.000000    -0.000000    -0.000000
 MO|   42     1  O  1f-1      0.003446    -0.000000     0.008244
 MO|   43     1  O  1f0      -0.000000     0.053281     0.000000
 MO|   44     1  O  1f+1      0.003418    -0.000000    -0.008420
 MO|   45     1  O  1f+2      0.000000     0.000000    -0.000000
 MO|   46     1  O  1f+3      0.000000     0.000000     0.000000
 MO|
 MO|   47     2  O  1s       -0.000000    -0.014396     0.000000
 MO|   48     2  O  2s        0.000000    -0.086104     0.000000
 MO|   49     2  O  1s        0.000000    -0.031248     0.000000
 MO|   50     2  O  1s        0.000000    -0.764003    -0.000000
 MO|   51     2  O  1py      -0.047405     0.000000     0.040968
 MO|   52     2  O  1pz       0.000000     0.011193    -0.000000
 MO|   53     2  O  1px      -0.047015     0.000000    -0.041839
 MO|   54     2  O  1py      -0.030643     0.000000     0.033886
 MO|   55     2  O  1pz       0.000000     0.072940    -0.000000
 MO|   56     2  O  1px      -0.030391     0.000000    -0.034607
 MO|   57     2  O  1py      -0.170837     0.000000     0.040500
 MO|   58     2  O  1pz       0.000000    -0.165566     0.000000
 MO|   59     2  O  1px      -0.169431     0.000000    -0.041361
 MO|   60     2  O  1d-2      0.000000    -0.000000     0.000000
 MO|   61     2  O  1d-1      0.001592    -0.000000     0.002016
 MO|   62     2  O  1d0       0.000000    -0.004395    -0.000000
 MO|   63     2  O  1d+1      0.001579    -0.000000    -0.002058
 MO|   64     2  O  1d+2     -0.000000    -0.000000     0.000000
 MO|   65     2  O  1d-2     -0.000000     0.000000    -0.000000
 MO|   66     2  O  1d-1      0.007077    -0.000000    -0.016514
 MO|   67     2  O  1d0      -0.000000    -0.028710    -0.000000
 MO|   68     2  O  1d+1      0.007019    -0.000000     0.016865
 MO|   69     2  O  1d+2      0.000000    -0.000000    -0.000000
 MO|   70     2  O  1f-3     -0.000000     0.000000     0.000000
 MO|   71     2  O  1f-2     -0.000000     0.000000     0.000000
 MO|   72     2  O  1f-1     -0.002358     0.000000     0.001934
 MO|   73     2  O  1f0      -0.000000     0.008032     0.000000
 MO|   74     2  O  1f+1     -0.002339     0.000000    -0.001975
 MO|   75     2  O  1f+2      0.000000    -0.000000     0.000000
 MO|   76     2  O  1f+3      0.000000    -0.000000     0.000000
 MO|   77     2  O  1s       -0.000000     0.317575    -0.000000
 MO|   78     2  O  1py       0.446216    -0.000000    -1.478189
 MO|   79     2  O  1pz      -0.000000    -1.521860     0.000000
 MO|   80     2  O  1px       0.442544    -0.000000     1.509621
 MO|   81     2  O  1d-2      0.000000    -0.000000     0.000000
 MO|   82     2  O  1d-1     -0.009258    -0.000000     0.131773
 MO|   83     2  O  1d0       0.000000     0.319487    -0.000000
 MO|   84     2  O  1d+1     -0.009182    -0.000000    -0.134575
 MO|   85     2  O  1d+2     -0.000000    -0.000000     0.000000
 MO|   86     2  O  1f-3     -0.000000    -0.000000    -0.000000
 MO|   87     2  O  1f-2      0.000000    -0.000000    -0.000000
 MO|   88     2  O  1f-1      0.003446    -0.000000    -0.008244
 MO|   89     2  O  1f0       0.000000    -0.053281     0.000000
 MO|   90     2  O  1f+1      0.003418    -0.000000     0.008420
 MO|   91     2  O  1f+2     -0.000000     0.000000    -0.000000
 MO|   92     2  O  1f+3      0.000000     0.000000    -0.000000
 MO|
 MO| E(Fermi):           -0.371768 a.u.        -10.116312 eV
 MO| Band gap:            0.455916 a.u.         12.406106 eV


 MO| BETA EIGENVALUES, OCCUPATION NUMBERS, AND SPHERICAL EIGENVECTORS AFTER SCF STEP 0
 MO|
 MO|                             1            2            3            4
 MO|                        -20.731408   -20.729990    -1.734718    -0.973406
 MO|
 MO|                          1.000000     1.000000     1.000000     1.000000
 MO|
 MO|    1     1  O  1s        0.690040     0.689513    -0.009027     0.001887
 MO|    2     1  O  2s       -0.000689    -0.002295     0.363265     0.406598
 MO|    3     1  O  1s        0.030302     0.030385     0.096965     0.112949
 MO|    4     1  O  1s        0.002049     0.007036     0.173219     0.357921
 MO|    5     1  O  1py       0.000000     0.000000     0.000000     0.000000
 MO|    6     1  O  1pz       0.000713     0.000318     0.073162    -0.073262
 MO|    7     1  O  1px       0.000000     0.000000     0.000000     0.000000
 MO|    8     1  O  1py      -0.000000    -0.000000     0.000000     0.000000
 MO|    9     1  O  1pz       0.000100    -0.000927     0.091716    -0.084953
 MO|   10     1  O  1px      -0.000000    -0.000000     0.000000     0.000000
 MO|   11     1  O  1py       0.000000     0.000000     0.000000     0.000000
 MO|   12     1  O  1pz       0.000731     0.002878     0.025407    -0.014812
 MO|   13     1  O  1px       0.000000    -0.000000     0.000000     0.000000
 MO|   14     1  O  1d-2     -0.000000    -0.000000     0.000000     0.000000
 MO|   15     1  O  1d-1     -0.000000    -0.000000     0.000000    -0.000000
 MO|   16     1  O  1d0       0.000211     0.000042     0.007158    -0.002990
 MO|   17     1  O  1d+1     -0.000000    -0.000000     0.000000    -0.000000
 MO|   18     1  O  1d+2     -0.000000    -0.000000     0.000000     0.000000
 MO|   19     1  O  1d-2      0.000000     0.000000     0.000000     0.000000
 MO|   20     1  O  1d-1      0.000000    -0.000000     0.000000    -0.000000
 MO|   21     1  O  1d0       0.000049    -0.000369     0.013669    -0.004288
 MO|   22     1  O  1d+1      0.000000    -0.000000     0.000000    -0.000000
 MO|   23     1  O  1d+2      0.000000     0.000000     0.000000    -0.000000
 MO|   24     1  O  1f-3     -0.000000    -0.000000     0.000000     0.000000
 MO|   25     1  O  1f-2     -0.000000    -0.000000    -0.000000     0.000000
 MO|   26     1  O  1f-1     -0.000000    -0.000000     0.000000    -0.000000
 MO|   27     1  O  1f0      -0.000087     0.000011     0.004237    -0.000134
 MO|   28     1  O  1f+1     -0.000000    -0.000000     0.000000    -0.000000
 MO|   29     1  O  1f+2     -0.000000    -0.000000     0.000000    -0.000000
 MO|   30     1  O  1f+3     -0.000000    -0.000000    -0.000000    -0.000000
 MO|   31     1  O  1s       -0.000198     0.000569     0.002337     0.038959
 MO|   32     1  O  1py      -0.000000    -0.000000     0.000000     0.000000
 MO|   33     1  O  1pz       0.000099     0.000078    -0.001588     0.000966
 MO|   34     1  O  1px      -0.000000    -0.000000     0.000000     0.000000
 MO|   35     1  O  1d-2     -0.000000    -0.000000    -0.000000    -0.000000
 MO|   36     1  O  1d-1      0.000000    -0.000000     0.000000    -0.000000
 MO|   37     1  O  1d0       0.000582     0.000730    -0.001125     0.006286
 MO|   38     1  O  1d+1      0.000000    -0.000000     0.000000    -0.000000
 MO|   39     1  O  1d+2      0.000000     0.000000    -0.000000     0.000000
 MO|   40     1  O  1f-3      0.000000     0.000000    -0.000000    -0.000000
 MO|   41     1  O  1f-2     -0.000000     0.000000     0.000000    -0.000000
 MO|   42     1  O  1f-1      0.000000    -0.000000     0.000000    -0.000000
 MO|   43     1  O  1f0       0.000165    -0.000084    -0.000126    -0.000377
 MO|   44     1  O  1f+1      0.000000    -0.000000     0.000000    -0.000000
 MO|   45     1  O  1f+2      0.000000     0.000000     0.000000    -0.000000
 MO|   46     1  O  1f+3      0.000000     0.000000     0.000000     0.000000
 MO|
 MO|   47     2  O  1s        0.690040    -0.689513    -0.009027    -0.001887
 MO|   48     2  O  2s       -0.000689     0.002295     0.363265    -0.406598
 MO|   49     2  O  1s        0.030302    -0.030385     0.096965    -0.112949
 MO|   50     2  O  1s        0.002049    -0.007036     0.173219    -0.357921
 MO|   51     2  O  1py       0.000000    -0.000000     0.000000    -0.000000
 MO|   52     2  O  1pz      -0.000713     0.000318    -0.073162    -0.073262
 MO|   53     2  O  1px       0.000000    -0.000000     0.000000    -0.000000
 MO|   54     2  O  1py      -0.000000     0.000000     0.000000    -0.000000
 MO|   55     2  O  1pz      -0.000100    -0.000927    -0.091716    -0.084953
 MO|   56     2  O  1px      -0.000000     0.000000     0.000000    -0.000000
 MO|   57     2  O  1py      -0.000000    -0.000000     0.000000    -0.000000
 MO|   58     2  O  1pz      -0.000731     0.002878    -0.025407    -0.014812
 MO|   59     2  O  1px      -0.000000    -0.000000     0.000000    -0.000000
 MO|   60     2  O  1d-2     -0.000000     0.000000     0.000000    -0.000000
 MO|   61     2  O  1d-1     -0.000000     0.000000    -0.000000    -0.000000
 MO|   62     2  O  1d0       0.000211    -0.000042     0.007158     0.002990
 MO|   63     2  O  1d+1     -0.000000     0.000000    -0.000000    -0.000000
 MO|   64     2  O  1d+2     -0.000000     0.000000     0.000000     0.000000
 MO|   65     2  O  1d-2      0.000000    -0.000000     0.000000    -0.000000
 MO|   66     2  O  1d-1      0.000000    -0.000000    -0.000000    -0.000000
 MO|   67     2  O  1d0       0.000049     0.000369     0.013669     0.004288
 MO|   68     2  O  1d+1      0.000000    -0.000000    -0.000000    -0.000000
 MO|   69     2  O  1d+2     -0.000000    -0.000000    -0.000000     0.000000
 MO|   70     2  O  1f-3      0.000000    -0.000000     0.000000    -0.000000
 MO|   71     2  O  1f-2      0.000000    -0.000000     0.000000     0.000000
 MO|   72     2  O  1f-1     -0.000000     0.000000     0.000000     0.000000
 MO|   73     2  O  1f0       0.000087     0.000011    -0.004237    -0.000134
 MO|   74     2  O  1f+1      0.000000     0.000000     0.000000     0.000000
 MO|   75     2  O  1f+2     -0.000000    -0.000000     0.000000     0.000000
 MO|   76     2  O  1f+3     -0.000000    -0.000000    -0.000000     0.000000
 MO|   77     2  O  1s       -0.000198    -0.000569     0.002337    -0.038959
 MO|   78     2  O  1py      -0.000000     0.000000     0.000000    -0.000000
 MO|   79     2  O  1pz      -0.000099     0.000078     0.001588     0.000966
 MO|   80     2  O  1px      -0.000000     0.000000     0.000000    -0.000000
 MO|   81     2  O  1d-2     -0.000000     0.000000    -0.000000     0.000000
 MO|   82     2  O  1d-1      0.000000    -0.000000    -0.000000    -0.000000
 MO|   83     2  O  1d0       0.000582    -0.000730    -0.001125    -0.006286
 MO|   84     2  O  1d+1      0.000000    -0.000000    -0.000000    -0.000000
 MO|   85     2  O  1d+2     -0.000000    -0.000000     0.000000    -0.000000
 MO|   86     2  O  1f-3     -0.000000     0.000000    -0.000000     0.000000
 MO|   87     2  O  1f-2      0.000000     0.000000    -0.000000     0.000000
 MO|   88     2  O  1f-1     -0.000000     0.000000     0.000000     0.000000
 MO|   89     2  O  1f0      -0.000165    -0.000084     0.000126    -0.000377
 MO|   90     2  O  1f+1     -0.000000     0.000000     0.000000     0.000000
 MO|   91     2  O  1f+2      0.000000     0.000000     0.000000    -0.000000
 MO|   92     2  O  1f+3      0.000000    -0.000000     0.000000    -0.000000
 MO|
 MO|                             5            6            7            8
 MO|                         -0.474188    -0.473965    -0.473965    -0.091768
 MO|
 MO|                          1.000000     1.000000     1.000000     0.000000
 MO|
 MO|    1     1  O  1s        0.002940     0.000000     0.000000    -0.000000
 MO|    2     1  O  2s        0.120266     0.000000     0.000000    -0.000000
 MO|    3     1  O  1s        0.034681     0.000000     0.000000    -0.000000
 MO|    4     1  O  1s        0.188281     0.000000     0.000000    -0.000000
 MO|    5     1  O  1py       0.000000    -0.165010    -0.163344     0.191255
 MO|    6     1  O  1pz      -0.246610    -0.000000    -0.000000     0.000000
 MO|    7     1  O  1px       0.000000     0.163344    -0.165010    -0.183242
 MO|    8     1  O  1py       0.000000    -0.212984    -0.210834     0.246910
 MO|    9     1  O  1pz      -0.309634    -0.000000    -0.000000     0.000000
 MO|   10     1  O  1px       0.000000     0.210834    -0.212984    -0.236565
 MO|   11     1  O  1py       0.000000    -0.153944    -0.152390     0.258384
 MO|   12     1  O  1pz      -0.202528    -0.000000    -0.000000    -0.000000
 MO|   13     1  O  1px       0.000000     0.152390    -0.153944    -0.247558
 MO|   14     1  O  1d-2      0.000000    -0.000000    -0.000000     0.000000
 MO|   15     1  O  1d-1      0.000000    -0.004726    -0.004678    -0.002735
 MO|   16     1  O  1d0      -0.007169    -0.000000    -0.000000    -0.000000
 MO|   17     1  O  1d+1      0.000000     0.004678    -0.004726     0.002620
 MO|   18     1  O  1d+2     -0.000000     0.000000    -0.000000    -0.000000
 MO|   19     1  O  1d-2      0.000000    -0.000000    -0.000000     0.000000
 MO|   20     1  O  1d-1      0.000000    -0.014574    -0.014427    -0.009977
 MO|   21     1  O  1d0      -0.012765    -0.000000    -0.000000     0.000000
 MO|   22     1  O  1d+1      0.000000     0.014427    -0.014574     0.009559
 MO|   23     1  O  1d+2      0.000000     0.000000    -0.000000    -0.000000
 MO|   24     1  O  1f-3      0.000000    -0.000000    -0.000000     0.000000
 MO|   25     1  O  1f-2      0.000000    -0.000000    -0.000000    -0.000000
 MO|   26     1  O  1f-1      0.000000    -0.003027    -0.002997    -0.000525
 MO|   27     1  O  1f0      -0.004610    -0.000000    -0.000000     0.000000
 MO|   28     1  O  1f+1      0.000000     0.002997    -0.003027     0.000503
 MO|   29     1  O  1f+2      0.000000     0.000000    -0.000000     0.000000
 MO|   30     1  O  1f+3     -0.000000    -0.000000     0.000000     0.000000
 MO|   31     1  O  1s        0.039360     0.000000     0.000000    -0.000000
 MO|   32     1  O  1py       0.000000    -0.017931    -0.017750     0.156387
 MO|   33     1  O  1pz      -0.023553    -0.000000    -0.000000    -0.000000
 MO|   34     1  O  1px       0.000000     0.017750    -0.017931    -0.149835
 MO|   35     1  O  1d-2     -0.000000    -0.000000    -0.000000     0.000000
 MO|   36     1  O  1d-1      0.000000    -0.003844    -0.003805    -0.005657
 MO|   37     1  O  1d0      -0.006373    -0.000000    -0.000000    -0.000000
 MO|   38     1  O  1d+1      0.000000     0.003805    -0.003844     0.005420
 MO|   39     1  O  1d+2     -0.000000     0.000000    -0.000000    -0.000000
 MO|   40     1  O  1f-3     -0.000000     0.000000     0.000000    -0.000000
 MO|   41     1  O  1f-2     -0.000000    -0.000000    -0.000000     0.000000
 MO|   42     1  O  1f-1      0.000000    -0.002059    -0.002038    -0.002393
 MO|   43     1  O  1f0      -0.000242    -0.000000    -0.000000    -0.000000
 MO|   44     1  O  1f+1      0.000000     0.002038    -0.002059     0.002293
 MO|   45     1  O  1f+2      0.000000     0.000000    -0.000000    -0.000000
 MO|   46     1  O  1f+3      0.000000     0.000000    -0.000000    -0.000000
 MO|
 MO|   47     2  O  1s        0.002940     0.000000     0.000000     0.000000
 MO|   48     2  O  2s        0.120266     0.000000     0.000000     0.000000
 MO|   49     2  O  1s        0.034681     0.000000     0.000000     0.000000
 MO|   50     2  O  1s        0.188281     0.000000     0.000000     0.000000
 MO|   51     2  O  1py       0.000000    -0.165010    -0.163344    -0.191255
 MO|   52     2  O  1pz       0.246610     0.000000     0.000000     0.000000
 MO|   53     2  O  1px       0.000000     0.163344    -0.165010     0.183242
 MO|   54     2  O  1py       0.000000    -0.212984    -0.210834    -0.246910
 MO|   55     2  O  1pz       0.309634     0.000000     0.000000     0.000000
 MO|   56     2  O  1px       0.000000     0.210834    -0.212984     0.236565
 MO|   57     2  O  1py       0.000000    -0.153944    -0.152390    -0.258384
 MO|   58     2  O  1pz       0.202528     0.000000     0.000000    -0.000000
 MO|   59     2  O  1px       0.000000     0.152390    -0.153944     0.247558
 MO|   60     2  O  1d-2      0.000000    -0.000000    -0.000000    -0.000000
 MO|   61     2  O  1d-1     -0.000000     0.004726     0.004678    -0.002735
 MO|   62     2  O  1d0      -0.007169    -0.000000    -0.000000     0.000000
 MO|   63     2  O  1d+1     -0.000000    -0.004678     0.004726     0.002620
 MO|   64     2  O  1d+2      0.000000     0.000000    -0.000000     0.000000
 MO|   65     2  O  1d-2      0.000000    -0.000000    -0.000000    -0.000000
 MO|   66     2  O  1d-1     -0.000000     0.014574     0.014427    -0.009977
 MO|   67     2  O  1d0      -0.012765    -0.000000    -0.000000    -0.000000
 MO|   68     2  O  1d+1     -0.000000    -0.014427     0.014574     0.009559
 MO|   69     2  O  1d+2     -0.000000     0.000000    -0.000000     0.000000
 MO|   70     2  O  1f-3      0.000000    -0.000000    -0.000000    -0.000000
 MO|   71     2  O  1f-2     -0.000000     0.000000     0.000000    -0.000000
 MO|   72     2  O  1f-1      0.000000    -0.003027    -0.002997     0.000525
 MO|   73     2  O  1f0       0.004610     0.000000     0.000000     0.000000
 MO|   74     2  O  1f+1      0.000000     0.002997    -0.003027    -0.000503
 MO|   75     2  O  1f+2     -0.000000    -0.000000     0.000000     0.000000
 MO|   76     2  O  1f+3     -0.000000    -0.000000     0.000000    -0.000000
 MO|   77     2  O  1s        0.039360     0.000000     0.000000     0.000000
 MO|   78     2  O  1py       0.000000    -0.017931    -0.017750    -0.156387
 MO|   79     2  O  1pz       0.023553     0.000000     0.000000    -0.000000
 MO|   80     2  O  1px       0.000000     0.017750    -0.017931     0.149835
 MO|   81     2  O  1d-2     -0.000000    -0.000000    -0.000000    -0.000000
 MO|   82     2  O  1d-1     -0.000000     0.003844     0.003805    -0.005657
 MO|   83     2  O  1d0      -0.006373    -0.000000    -0.000000     0.000000
 MO|   84     2  O  1d+1     -0.000000    -0.003805     0.003844     0.005420
 MO|   85     2  O  1d+2      0.000000     0.000000    -0.000000     0.000000
 MO|   86     2  O  1f-3     -0.000000     0.000000     0.000000     0.000000
 MO|   87     2  O  1f-2      0.000000     0.000000     0.000000     0.000000
 MO|   88     2  O  1f-1      0.000000    -0.002059    -0.002038     0.002393
 MO|   89     2  O  1f0       0.000242     0.000000     0.000000    -0.000000
 MO|   90     2  O  1f+1      0.000000     0.002038    -0.002059    -0.002293
 MO|   91     2  O  1f+2      0.000000    -0.000000     0.000000    -0.000000
 MO|   92     2  O  1f+3      0.000000     0.000000    -0.000000     0.000000
 MO|
 MO|                             9           10           11           12
 MO|                         -0.091768     0.096133     0.144396     0.159786
 MO|
 MO|                          0.000000     0.000000     0.000000     0.000000
 MO|
 MO|    1     1  O  1s       -0.000000     0.011628     0.000660     0.000000
 MO|    2     1  O  2s       -0.000000    -0.049759     0.089905    -0.000000
 MO|    3     1  O  1s       -0.000000    -0.012021     0.036412    -0.000000
 MO|    4     1  O  1s       -0.000000    -1.225983     0.624904    -0.000000
 MO|    5     1  O  1py       0.183242    -0.000000     0.000000     0.052120
 MO|    6     1  O  1pz       0.000000    -0.017782    -0.056811     0.000000
 MO|    7     1  O  1px       0.191255    -0.000000     0.000000    -0.051750
 MO|    8     1  O  1py       0.236565    -0.000000     0.000000     0.034965
 MO|    9     1  O  1pz       0.000000    -0.057761     0.006827     0.000000
 MO|   10     1  O  1px       0.246910    -0.000000     0.000000    -0.034717
 MO|   11     1  O  1py       0.247558    -0.000000     0.000000     0.195182
 MO|   12     1  O  1pz      -0.000000    -1.092037    -0.324199     0.000000
 MO|   13     1  O  1px       0.258384    -0.000000     0.000000    -0.193796
 MO|   14     1  O  1d-2      0.000000    -0.000000     0.000000    -0.000000
 MO|   15     1  O  1d-1     -0.002620     0.000000     0.000000     0.001663
 MO|   16     1  O  1d0      -0.000000     0.003401     0.004943    -0.000000
 MO|   17     1  O  1d+1     -0.002735     0.000000     0.000000    -0.001652
 MO|   18     1  O  1d+2      0.000000    -0.000000     0.000000     0.000000
 MO|   19     1  O  1d-2      0.000000     0.000000    -0.000000     0.000000
 MO|   20     1  O  1d-1     -0.009559    -0.000000     0.000000     0.007319
 MO|   21     1  O  1d0       0.000000    -0.024645    -0.016976     0.000000
 MO|   22     1  O  1d+1     -0.009977    -0.000000     0.000000    -0.007267
 MO|   23     1  O  1d+2      0.000000     0.000000     0.000000    -0.000000
 MO|   24     1  O  1f-3      0.000000     0.000000    -0.000000     0.000000
 MO|   25     1  O  1f-2     -0.000000     0.000000     0.000000    -0.000000
 MO|   26     1  O  1f-1     -0.000503    -0.000000     0.000000     0.002485
 MO|   27     1  O  1f0       0.000000     0.000226     0.004232    -0.000000
 MO|   28     1  O  1f+1     -0.000525    -0.000000     0.000000    -0.002467
 MO|   29     1  O  1f+2     -0.000000    -0.000000    -0.000000     0.000000
 MO|   30     1  O  1f+3     -0.000000    -0.000000     0.000000     0.000000
 MO|   31     1  O  1s       -0.000000    -6.923507    -0.972826     0.000000
 MO|   32     1  O  1py       0.149835     0.000000    -0.000000    -0.451579
 MO|   33     1  O  1pz      -0.000000    -2.466762     0.762507    -0.000000
 MO|   34     1  O  1px       0.156387     0.000000    -0.000000     0.448372
 MO|   35     1  O  1d-2      0.000000    -0.000000     0.000000    -0.000000
 MO|   36     1  O  1d-1     -0.005420     0.000000    -0.000000    -0.009835
 MO|   37     1  O  1d0      -0.000000    -0.289992    -0.095998    -0.000000
 MO|   38     1  O  1d+1     -0.005657     0.000000    -0.000000     0.009766
 MO|   39     1  O  1d+2      0.000000    -0.000000    -0.000000     0.000000
 MO|   40     1  O  1f-3     -0.000000    -0.000000     0.000000     0.000000
 MO|   41     1  O  1f-2      0.000000    -0.000000    -0.000000     0.000000
 MO|   42     1  O  1f-1     -0.002293     0.000000    -0.000000    -0.003684
 MO|   43     1  O  1f0      -0.000000    -0.024760    -0.039439     0.000000
 MO|   44     1  O  1f+1     -0.002393     0.000000    -0.000000     0.003658
 MO|   45     1  O  1f+2      0.000000     0.000000     0.000000    -0.000000
 MO|   46     1  O  1f+3      0.000000     0.000000    -0.000000     0.000000
 MO|
 MO|   47     2  O  1s        0.000000    -0.011628     0.000660     0.000000
 MO|   48     2  O  2s        0.000000     0.049759     0.089905    -0.000000
 MO|   49     2  O  1s        0.000000     0.012021     0.036412    -0.000000
 MO|   50     2  O  1s        0.000000     1.225983     0.624904    -0.000000
 MO|   51     2  O  1py      -0.183242     0.000000     0.000000     0.052120
 MO|   52     2  O  1pz       0.000000    -0.017782     0.056811    -0.000000
 MO|   53     2  O  1px      -0.191255     0.000000     0.000000    -0.051750
 MO|   54     2  O  1py      -0.236565     0.000000     0.000000     0.034965
 MO|   55     2  O  1pz       0.000000    -0.057761    -0.006827    -0.000000
 MO|   56     2  O  1px      -0.246910     0.000000     0.000000    -0.034717
 MO|   57     2  O  1py      -0.247558     0.000000     0.000000     0.195182
 MO|   58     2  O  1pz      -0.000000    -1.092037     0.324199    -0.000000
 MO|   59     2  O  1px      -0.258384     0.000000     0.000000    -0.193796
 MO|   60     2  O  1d-2     -0.000000     0.000000     0.000000    -0.000000
 MO|   61     2  O  1d-1     -0.002620     0.000000    -0.000000    -0.001663
 MO|   62     2  O  1d0       0.000000    -0.003401     0.004943    -0.000000
 MO|   63     2  O  1d+1     -0.002735     0.000000    -0.000000     0.001652
 MO|   64     2  O  1d+2     -0.000000     0.000000    -0.000000     0.000000
 MO|   65     2  O  1d-2     -0.000000    -0.000000    -0.000000     0.000000
 MO|   66     2  O  1d-1     -0.009559    -0.000000    -0.000000    -0.007319
 MO|   67     2  O  1d0      -0.000000     0.024645    -0.016976     0.000000
 MO|   68     2  O  1d+1     -0.009977    -0.000000    -0.000000     0.007267
 MO|   69     2  O  1d+2     -0.000000     0.000000    -0.000000    -0.000000
 MO|   70     2  O  1f-3     -0.000000    -0.000000    -0.000000     0.000000
 MO|   71     2  O  1f-2     -0.000000     0.000000    -0.000000     0.000000
 MO|   72     2  O  1f-1      0.000503     0.000000     0.000000     0.002485
 MO|   73     2  O  1f0       0.000000     0.000226    -0.004232     0.000000
 MO|   74     2  O  1f+1      0.000525     0.000000     0.000000    -0.002467
 MO|   75     2  O  1f+2     -0.000000    -0.000000     0.000000    -0.000000
 MO|   76     2  O  1f+3      0.000000     0.000000     0.000000     0.000000
 MO|   77     2  O  1s        0.000000     6.923507    -0.972826     0.000000
 MO|   78     2  O  1py      -0.149835    -0.000000    -0.000000    -0.451579
 MO|   79     2  O  1pz      -0.000000    -2.466762    -0.762507     0.000000
 MO|   80     2  O  1px      -0.156387    -0.000000    -0.000000     0.448372
 MO|   81     2  O  1d-2     -0.000000     0.000000     0.000000    -0.000000
 MO|   82     2  O  1d-1     -0.005420     0.000000     0.000000     0.009835
 MO|   83     2  O  1d0       0.000000     0.289992    -0.095998    -0.000000
 MO|   84     2  O  1d+1     -0.005657     0.000000     0.000000    -0.009766
 MO|   85     2  O  1d+2     -0.000000    -0.000000     0.000000     0.000000
 MO|   86     2  O  1f-3      0.000000     0.000000     0.000000     0.000000
 MO|   87     2  O  1f-2      0.000000    -0.000000     0.000000    -0.000000
 MO|   88     2  O  1f-1      0.002293    -0.000000    -0.000000    -0.003684
 MO|   89     2  O  1f0      -0.000000    -0.024760     0.039439    -0.000000
 MO|   90     2  O  1f+1      0.002393    -0.000000    -0.000000     0.003658
 MO|   91     2  O  1f+2      0.000000     0.000000     0.000000     0.000000
 MO|   92     2  O  1f+3     -0.000000    -0.000000    -0.000000     0.000000
 MO|
 MO|                            13
 MO|                          0.159786
 MO|
 MO|                          0.000000
 MO|
 MO|    1     1  O  1s       -0.000000
 MO|    2     1  O  2s        0.000000
 MO|    3     1  O  1s        0.000000
 MO|    4     1  O  1s        0.000000
 MO|    5     1  O  1py      -0.051750
 MO|    6     1  O  1pz      -0.000000
 MO|    7     1  O  1px      -0.052120
 MO|    8     1  O  1py      -0.034717
 MO|    9     1  O  1pz      -0.000000
 MO|   10     1  O  1px      -0.034965
 MO|   11     1  O  1py      -0.193796
 MO|   12     1  O  1pz      -0.000000
 MO|   13     1  O  1px      -0.195182
 MO|   14     1  O  1d-2      0.000000
 MO|   15     1  O  1d-1     -0.001652
 MO|   16     1  O  1d0       0.000000
 MO|   17     1  O  1d+1     -0.001663
 MO|   18     1  O  1d+2      0.000000
 MO|   19     1  O  1d-2     -0.000000
 MO|   20     1  O  1d-1     -0.007267
 MO|   21     1  O  1d0      -0.000000
 MO|   22     1  O  1d+1     -0.007319
 MO|   23     1  O  1d+2     -0.000000
 MO|   24     1  O  1f-3     -0.000000
 MO|   25     1  O  1f-2      0.000000
 MO|   26     1  O  1f-1     -0.002467
 MO|   27     1  O  1f0       0.000000
 MO|   28     1  O  1f+1     -0.002485
 MO|   29     1  O  1f+2      0.000000
 MO|   30     1  O  1f+3      0.000000
 MO|   31     1  O  1s       -0.000000
 MO|   32     1  O  1py       0.448372
 MO|   33     1  O  1pz       0.000000
 MO|   34     1  O  1px       0.451579
 MO|   35     1  O  1d-2      0.000000
 MO|   36     1  O  1d-1      0.009766
 MO|   37     1  O  1d0       0.000000
 MO|   38     1  O  1d+1      0.009835
 MO|   39     1  O  1d+2      0.000000
 MO|   40     1  O  1f-3     -0.000000
 MO|   41     1  O  1f-2     -0.000000
 MO|   42     1  O  1f-1      0.003658
 MO|   43     1  O  1f0      -0.000000
 MO|   44     1  O  1f+1      0.003684
 MO|   45     1  O  1f+2     -0.000000
 MO|   46     1  O  1f+3      0.000000
 MO|
 MO|   47     2  O  1s       -0.000000
 MO|   48     2  O  2s        0.000000
 MO|   49     2  O  1s        0.000000
 MO|   50     2  O  1s        0.000000
 MO|   51     2  O  1py      -0.051750
 MO|   52     2  O  1pz       0.000000
 MO|   53     2  O  1px      -0.052120
 MO|   54     2  O  1py      -0.034717
 MO|   55     2  O  1pz       0.000000
 MO|   56     2  O  1px      -0.034965
 MO|   57     2  O  1py      -0.193796
 MO|   58     2  O  1pz       0.000000
 MO|   59     2  O  1px      -0.195182
 MO|   60     2  O  1d-2      0.000000
 MO|   61     2  O  1d-1      0.001652
 MO|   62     2  O  1d0       0.000000
 MO|   63     2  O  1d+1      0.001663
 MO|   64     2  O  1d+2      0.000000
 MO|   65     2  O  1d-2     -0.000000
 MO|   66     2  O  1d-1      0.007267
 MO|   67     2  O  1d0      -0.000000
 MO|   68     2  O  1d+1      0.007319
 MO|   69     2  O  1d+2     -0.000000
 MO|   70     2  O  1f-3     -0.000000
 MO|   71     2  O  1f-2     -0.000000
 MO|   72     2  O  1f-1     -0.002467
 MO|   73     2  O  1f0      -0.000000
 MO|   74     2  O  1f+1     -0.002485
 MO|   75     2  O  1f+2     -0.000000
 MO|   76     2  O  1f+3      0.000000
 MO|   77     2  O  1s       -0.000000
 MO|   78     2  O  1py       0.448372
 MO|   79     2  O  1pz      -0.000000
 MO|   80     2  O  1px       0.451579
 MO|   81     2  O  1d-2      0.000000
 MO|   82     2  O  1d-1     -0.009766
 MO|   83     2  O  1d0       0.000000
 MO|   84     2  O  1d+1     -0.009835
 MO|   85     2  O  1d+2      0.000000
 MO|   86     2  O  1f-3     -0.000000
 MO|   87     2  O  1f-2      0.000000
 MO|   88     2  O  1f-1      0.003658
 MO|   89     2  O  1f0       0.000000
 MO|   90     2  O  1f+1      0.003684
 MO|   91     2  O  1f+2      0.000000
 MO|   92     2  O  1f+3      0.000000
 MO|
 MO| E(Fermi):           -0.473965 a.u.        -12.897244 eV
 MO| Band gap:            0.382197 a.u.         10.400122 eV

     1 P_Mix/Diag. 0.10E+00   12.4     0.10286171      -149.7729821376 -1.50E+02

 MO| ALPHA EIGENVALUES, OCCUPATION NUMBERS, AND SPHERICAL EIGENVECTORS AFTER SCF STEP 1
 MO|
 MO|                             1            2            3            4
 MO|                        -20.783248   -20.780893    -1.982262    -1.186276
 MO|
 MO|                          1.000000     1.000000     1.000000     1.000000
 MO|
 MO|    1     1  O  1s        0.688665     0.688058    -0.008724     0.002784
 MO|    2     1  O  2s       -0.001109    -0.002892     0.360188     0.412252
 MO|    3     1  O  1s        0.032294     0.032513     0.097226     0.117002
 MO|    4     1  O  1s        0.002323     0.007836     0.150041     0.322751
 MO|    5     1  O  1py       0.000000     0.000000     0.000000     0.000000
 MO|    6     1  O  1pz       0.000974     0.000438     0.096329    -0.089882
 MO|    7     1  O  1px       0.000000     0.000000     0.000000     0.000000
 MO|    8     1  O  1py      -0.000000    -0.000000     0.000000     0.000000
 MO|    9     1  O  1pz       0.000061    -0.001511     0.119223    -0.105922
 MO|   10     1  O  1px      -0.000000    -0.000000     0.000000     0.000000
 MO|   11     1  O  1py       0.000000     0.000000     0.000000     0.000000
 MO|   12     1  O  1pz       0.001108     0.003187     0.032757    -0.019375
 MO|   13     1  O  1px       0.000000     0.000000     0.000000     0.000000
 MO|   14     1  O  1d-2     -0.000000    -0.000000     0.000000     0.000000
 MO|   15     1  O  1d-1     -0.000000    -0.000000     0.000000    -0.000000
 MO|   16     1  O  1d0       0.000199    -0.000006     0.008198    -0.003244
 MO|   17     1  O  1d+1     -0.000000    -0.000000     0.000000    -0.000000
 MO|   18     1  O  1d+2     -0.000000    -0.000000     0.000000     0.000000
 MO|   19     1  O  1d-2      0.000000     0.000000     0.000000     0.000000
 MO|   20     1  O  1d-1      0.000000    -0.000000     0.000000    -0.000000
 MO|   21     1  O  1d0       0.000134    -0.000658     0.016036    -0.005219
 MO|   22     1  O  1d+1      0.000000    -0.000000     0.000000    -0.000000
 MO|   23     1  O  1d+2      0.000000     0.000000     0.000000     0.000000
 MO|   24     1  O  1f-3     -0.000000    -0.000000     0.000000     0.000000
 MO|   25     1  O  1f-2     -0.000000    -0.000000    -0.000000     0.000000
 MO|   26     1  O  1f-1     -0.000000    -0.000000     0.000000    -0.000000
 MO|   27     1  O  1f0      -0.000086    -0.000051     0.005036    -0.000081
 MO|   28     1  O  1f+1     -0.000000    -0.000000     0.000000    -0.000000
 MO|   29     1  O  1f+2     -0.000000    -0.000000    -0.000000     0.000000
 MO|   30     1  O  1f+3     -0.000000    -0.000000    -0.000000    -0.000000
 MO|   31     1  O  1s       -0.000165     0.000753     0.000572     0.015595
 MO|   32     1  O  1py      -0.000000    -0.000000     0.000000     0.000000
 MO|   33     1  O  1pz       0.000137     0.000117    -0.002025    -0.001679
 MO|   34     1  O  1px      -0.000000    -0.000000     0.000000     0.000000
 MO|   35     1  O  1d-2     -0.000000    -0.000000    -0.000000    -0.000000
 MO|   36     1  O  1d-1      0.000000    -0.000000     0.000000    -0.000000
 MO|   37     1  O  1d0       0.000830     0.000839    -0.000814     0.006400
 MO|   38     1  O  1d+1      0.000000    -0.000000     0.000000    -0.000000
 MO|   39     1  O  1d+2      0.000000     0.000000     0.000000    -0.000000
 MO|   40     1  O  1f-3     -0.000000     0.000000    -0.000000    -0.000000
 MO|   41     1  O  1f-2     -0.000000     0.000000     0.000000    -0.000000
 MO|   42     1  O  1f-1      0.000000    -0.000000     0.000000    -0.000000
 MO|   43     1  O  1f0       0.000279    -0.000144     0.000424    -0.000517
 MO|   44     1  O  1f+1      0.000000    -0.000000     0.000000    -0.000000
 MO|   45     1  O  1f+2      0.000000     0.000000     0.000000    -0.000000
 MO|   46     1  O  1f+3      0.000000     0.000000     0.000000     0.000000
 MO|
 MO|   47     2  O  1s        0.688665    -0.688058    -0.008724    -0.002784
 MO|   48     2  O  2s       -0.001109     0.002892     0.360188    -0.412252
 MO|   49     2  O  1s        0.032294    -0.032513     0.097226    -0.117002
 MO|   50     2  O  1s        0.002323    -0.007836     0.150041    -0.322751
 MO|   51     2  O  1py       0.000000    -0.000000     0.000000    -0.000000
 MO|   52     2  O  1pz      -0.000974     0.000438    -0.096329    -0.089882
 MO|   53     2  O  1px       0.000000    -0.000000     0.000000    -0.000000
 MO|   54     2  O  1py      -0.000000     0.000000     0.000000    -0.000000
 MO|   55     2  O  1pz      -0.000061    -0.001511    -0.119223    -0.105922
 MO|   56     2  O  1px      -0.000000     0.000000     0.000000    -0.000000
 MO|   57     2  O  1py      -0.000000    -0.000000     0.000000    -0.000000
 MO|   58     2  O  1pz      -0.001108     0.003187    -0.032757    -0.019375
 MO|   59     2  O  1px      -0.000000    -0.000000     0.000000    -0.000000
 MO|   60     2  O  1d-2     -0.000000     0.000000     0.000000    -0.000000
 MO|   61     2  O  1d-1     -0.000000     0.000000    -0.000000    -0.000000
 MO|   62     2  O  1d0       0.000199     0.000006     0.008198     0.003244
 MO|   63     2  O  1d+1     -0.000000     0.000000    -0.000000    -0.000000
 MO|   64     2  O  1d+2      0.000000    -0.000000     0.000000     0.000000
 MO|   65     2  O  1d-2      0.000000    -0.000000     0.000000    -0.000000
 MO|   66     2  O  1d-1      0.000000    -0.000000    -0.000000    -0.000000
 MO|   67     2  O  1d0       0.000134     0.000658     0.016036     0.005219
 MO|   68     2  O  1d+1      0.000000    -0.000000    -0.000000    -0.000000
 MO|   69     2  O  1d+2     -0.000000    -0.000000    -0.000000     0.000000
 MO|   70     2  O  1f-3      0.000000    -0.000000     0.000000    -0.000000
 MO|   71     2  O  1f-2      0.000000    -0.000000     0.000000     0.000000
 MO|   72     2  O  1f-1     -0.000000     0.000000     0.000000     0.000000
 MO|   73     2  O  1f0       0.000086    -0.000051    -0.005036    -0.000081
 MO|   74     2  O  1f+1     -0.000000     0.000000     0.000000     0.000000
 MO|   75     2  O  1f+2     -0.000000    -0.000000    -0.000000     0.000000
 MO|   76     2  O  1f+3     -0.000000    -0.000000    -0.000000     0.000000
 MO|   77     2  O  1s       -0.000165    -0.000753     0.000572    -0.015595
 MO|   78     2  O  1py      -0.000000     0.000000    -0.000000    -0.000000
 MO|   79     2  O  1pz      -0.000137     0.000117     0.002025    -0.001679
 MO|   80     2  O  1px      -0.000000     0.000000    -0.000000    -0.000000
 MO|   81     2  O  1d-2     -0.000000     0.000000    -0.000000     0.000000
 MO|   82     2  O  1d-1      0.000000    -0.000000    -0.000000    -0.000000
 MO|   83     2  O  1d0       0.000830    -0.000839    -0.000814    -0.006400
 MO|   84     2  O  1d+1      0.000000    -0.000000    -0.000000    -0.000000
 MO|   85     2  O  1d+2      0.000000    -0.000000    -0.000000     0.000000
 MO|   86     2  O  1f-3     -0.000000     0.000000    -0.000000     0.000000
 MO|   87     2  O  1f-2      0.000000     0.000000    -0.000000    -0.000000
 MO|   88     2  O  1f-1     -0.000000     0.000000     0.000000     0.000000
 MO|   89     2  O  1f0      -0.000279    -0.000144    -0.000424    -0.000517
 MO|   90     2  O  1f+1     -0.000000     0.000000     0.000000     0.000000
 MO|   91     2  O  1f+2      0.000000     0.000000     0.000000     0.000000
 MO|   92     2  O  1f+3     -0.000000     0.000000     0.000000    -0.000000
 MO|
 MO|                             5            6            7            8
 MO|                         -0.813040    -0.813040    -0.791456    -0.393790
 MO|
 MO|                          1.000000     1.000000     1.000000     1.000000
 MO|
 MO|    1     1  O  1s       -0.000000     0.000000    -0.004519    -0.000000
 MO|    2     1  O  2s       -0.000000     0.000000    -0.166319    -0.000000
 MO|    3     1  O  1s       -0.000000     0.000000    -0.048609    -0.000000
 MO|    4     1  O  1s       -0.000000     0.000000    -0.185526    -0.000000
 MO|    5     1  O  1py       0.181009     0.181250     0.000000    -0.205089
 MO|    6     1  O  1pz       0.000000    -0.000000     0.255483     0.000000
 MO|    7     1  O  1px      -0.181250     0.181009     0.000000     0.213281
 MO|    8     1  O  1py       0.231046     0.231354     0.000000    -0.261540
 MO|    9     1  O  1pz       0.000000    -0.000000     0.317123     0.000000
 MO|   10     1  O  1px      -0.231354     0.231046     0.000000     0.271987
 MO|   11     1  O  1py       0.128549     0.128720     0.000000    -0.210112
 MO|   12     1  O  1pz       0.000000    -0.000000     0.162130    -0.000000
 MO|   13     1  O  1px      -0.128720     0.128549     0.000000     0.218505
 MO|   14     1  O  1d-2     -0.000000     0.000000    -0.000000     0.000000
 MO|   15     1  O  1d-1      0.005201     0.005208     0.000000     0.002350
 MO|   16     1  O  1d0       0.000000    -0.000000     0.007634    -0.000000
 MO|   17     1  O  1d+1     -0.005208     0.005201     0.000000    -0.002444
 MO|   18     1  O  1d+2     -0.000000    -0.000000    -0.000000     0.000000
 MO|   19     1  O  1d-2     -0.000000     0.000000    -0.000000     0.000000
 MO|   20     1  O  1d-1      0.015199     0.015219     0.000000     0.008656
 MO|   21     1  O  1d0       0.000000    -0.000000     0.012315    -0.000000
 MO|   22     1  O  1d+1     -0.015219     0.015199     0.000000    -0.009002
 MO|   23     1  O  1d+2     -0.000000    -0.000000    -0.000000     0.000000
 MO|   24     1  O  1f-3      0.000000     0.000000    -0.000000    -0.000000
 MO|   25     1  O  1f-2      0.000000     0.000000    -0.000000    -0.000000
 MO|   26     1  O  1f-1      0.003308     0.003312     0.000000     0.000578
 MO|   27     1  O  1f0       0.000000    -0.000000     0.004789     0.000000
 MO|   28     1  O  1f+1     -0.003312     0.003308     0.000000    -0.000601
 MO|   29     1  O  1f+2     -0.000000    -0.000000    -0.000000    -0.000000
 MO|   30     1  O  1f+3      0.000000    -0.000000     0.000000    -0.000000
 MO|   31     1  O  1s       -0.000000     0.000000    -0.013406     0.000000
 MO|   32     1  O  1py       0.004844     0.004850     0.000000    -0.034323
 MO|   33     1  O  1pz      -0.000000     0.000000     0.005418     0.000000
 MO|   34     1  O  1px      -0.004850     0.004844     0.000000     0.035694
 MO|   35     1  O  1d-2     -0.000000     0.000000     0.000000     0.000000
 MO|   36     1  O  1d-1      0.002613     0.002617     0.000000    -0.000556
 MO|   37     1  O  1d0       0.000000    -0.000000     0.003288    -0.000000
 MO|   38     1  O  1d+1     -0.002617     0.002613     0.000000     0.000578
 MO|   39     1  O  1d+2     -0.000000    -0.000000    -0.000000     0.000000
 MO|   40     1  O  1f-3     -0.000000    -0.000000     0.000000     0.000000
 MO|   41     1  O  1f-2     -0.000000     0.000000     0.000000     0.000000
 MO|   42     1  O  1f-1      0.001853     0.001856     0.000000     0.001649
 MO|   43     1  O  1f0       0.000000    -0.000000    -0.000916    -0.000000
 MO|   44     1  O  1f+1     -0.001856     0.001853     0.000000    -0.001715
 MO|   45     1  O  1f+2     -0.000000     0.000000     0.000000     0.000000
 MO|   46     1  O  1f+3     -0.000000     0.000000    -0.000000     0.000000
 MO|
 MO|   47     2  O  1s       -0.000000     0.000000    -0.004519     0.000000
 MO|   48     2  O  2s       -0.000000     0.000000    -0.166319     0.000000
 MO|   49     2  O  1s       -0.000000     0.000000    -0.048609     0.000000
 MO|   50     2  O  1s       -0.000000     0.000000    -0.185526     0.000000
 MO|   51     2  O  1py       0.181009     0.181250     0.000000     0.205089
 MO|   52     2  O  1pz      -0.000000     0.000000    -0.255483     0.000000
 MO|   53     2  O  1px      -0.181250     0.181009     0.000000    -0.213281
 MO|   54     2  O  1py       0.231046     0.231354     0.000000     0.261540
 MO|   55     2  O  1pz      -0.000000     0.000000    -0.317123     0.000000
 MO|   56     2  O  1px      -0.231354     0.231046     0.000000    -0.271987
 MO|   57     2  O  1py       0.128549     0.128720     0.000000     0.210112
 MO|   58     2  O  1pz      -0.000000     0.000000    -0.162130    -0.000000
 MO|   59     2  O  1px      -0.128720     0.128549     0.000000    -0.218505
 MO|   60     2  O  1d-2     -0.000000     0.000000    -0.000000    -0.000000
 MO|   61     2  O  1d-1     -0.005201    -0.005208    -0.000000     0.002350
 MO|   62     2  O  1d0       0.000000    -0.000000     0.007634     0.000000
 MO|   63     2  O  1d+1      0.005208    -0.005201    -0.000000    -0.002444
 MO|   64     2  O  1d+2     -0.000000    -0.000000     0.000000    -0.000000
 MO|   65     2  O  1d-2     -0.000000     0.000000    -0.000000    -0.000000
 MO|   66     2  O  1d-1     -0.015199    -0.015219    -0.000000     0.008656
 MO|   67     2  O  1d0       0.000000    -0.000000     0.012315     0.000000
 MO|   68     2  O  1d+1      0.015219    -0.015199    -0.000000    -0.009002
 MO|   69     2  O  1d+2     -0.000000    -0.000000    -0.000000    -0.000000
 MO|   70     2  O  1f-3      0.000000     0.000000    -0.000000     0.000000
 MO|   71     2  O  1f-2      0.000000    -0.000000     0.000000    -0.000000
 MO|   72     2  O  1f-1      0.003308     0.003312     0.000000    -0.000578
 MO|   73     2  O  1f0      -0.000000     0.000000    -0.004789     0.000000
 MO|   74     2  O  1f+1     -0.003312     0.003308     0.000000     0.000601
 MO|   75     2  O  1f+2      0.000000     0.000000     0.000000    -0.000000
 MO|   76     2  O  1f+3      0.000000    -0.000000     0.000000     0.000000
 MO|   77     2  O  1s       -0.000000     0.000000    -0.013406    -0.000000
 MO|   78     2  O  1py       0.004844     0.004850     0.000000     0.034323
 MO|   79     2  O  1pz      -0.000000    -0.000000    -0.005418     0.000000
 MO|   80     2  O  1px      -0.004850     0.004844     0.000000    -0.035694
 MO|   81     2  O  1d-2     -0.000000     0.000000     0.000000    -0.000000
 MO|   82     2  O  1d-1     -0.002613    -0.002617    -0.000000    -0.000556
 MO|   83     2  O  1d0       0.000000    -0.000000     0.003288     0.000000
 MO|   84     2  O  1d+1      0.002617    -0.002613    -0.000000     0.000578
 MO|   85     2  O  1d+2     -0.000000    -0.000000     0.000000    -0.000000
 MO|   86     2  O  1f-3     -0.000000    -0.000000     0.000000    -0.000000
 MO|   87     2  O  1f-2      0.000000    -0.000000    -0.000000     0.000000
 MO|   88     2  O  1f-1      0.001853     0.001856     0.000000    -0.001649
 MO|   89     2  O  1f0      -0.000000     0.000000     0.000916    -0.000000
 MO|   90     2  O  1f+1     -0.001856     0.001853     0.000000     0.001715
 MO|   91     2  O  1f+2      0.000000     0.000000    -0.000000     0.000000
 MO|   92     2  O  1f+3     -0.000000     0.000000    -0.000000    -0.000000
 MO|
 MO|                             9           10           11           12
 MO|                         -0.393790     0.086735     0.135561     0.151064
 MO|
 MO|                          1.000000     0.000000     0.000000     0.000000
 MO|
 MO|    1     1  O  1s        0.000000     0.005338     0.002700     0.000000
 MO|    2     1  O  2s        0.000000    -0.103938     0.095379    -0.000000
[...]
 MO|   64     2  O  1d+2      0.000000    -0.000000    -0.000000    -0.000000
 MO|   65     2  O  1d-2      0.000000    -0.000000    -0.000000     0.000000
 MO|   66     2  O  1d-1     -0.009825     0.000000    -0.000000     0.009853
 MO|   67     2  O  1d0       0.000000     0.029209    -0.016739     0.000000
 MO|   68     2  O  1d+1     -0.009728     0.000000    -0.000000    -0.010079
 MO|   69     2  O  1d+2     -0.000000    -0.000000     0.000000     0.000000
 MO|   70     2  O  1f-3     -0.000000    -0.000000    -0.000000    -0.000000
 MO|   71     2  O  1f-2     -0.000000     0.000000    -0.000000     0.000000
 MO|   72     2  O  1f-1     -0.000299     0.000000     0.000000    -0.003006
 MO|   73     2  O  1f0       0.000000     0.000177    -0.003846     0.000000
 MO|   74     2  O  1f+1     -0.000296     0.000000     0.000000     0.003075
 MO|   75     2  O  1f+2      0.000000     0.000000    -0.000000     0.000000
 MO|   76     2  O  1f+3      0.000000     0.000000     0.000000    -0.000000
 MO|   77     2  O  1s        0.000000     7.278174    -0.974530     0.000000
 MO|   78     2  O  1py      -0.514856     0.000000    -0.000000     0.445718
 MO|   79     2  O  1pz      -0.000000    -2.566347    -0.767094     0.000000
 MO|   80     2  O  1px      -0.509761     0.000000    -0.000000    -0.455943
 MO|   81     2  O  1d-2     -0.000000     0.000000     0.000000    -0.000000
 MO|   82     2  O  1d-1      0.013538     0.000000     0.000000    -0.009121
 MO|   83     2  O  1d0       0.000000     0.309291    -0.097497    -0.000000
 MO|   84     2  O  1d+1      0.013404     0.000000     0.000000     0.009330
 MO|   85     2  O  1d+2      0.000000    -0.000000    -0.000000    -0.000000
 MO|   86     2  O  1f-3      0.000000     0.000000     0.000000    -0.000000
 MO|   87     2  O  1f-2      0.000000    -0.000000     0.000000    -0.000000
 MO|   88     2  O  1f-1     -0.000158    -0.000000    -0.000000     0.003261
 MO|   89     2  O  1f0      -0.000000    -0.026739     0.039795    -0.000000
 MO|   90     2  O  1f+1     -0.000157    -0.000000    -0.000000    -0.003336
 MO|   91     2  O  1f+2     -0.000000     0.000000     0.000000    -0.000000
 MO|   92     2  O  1f+3     -0.000000    -0.000000    -0.000000    -0.000000
 MO|
 MO|                            13
 MO|                          0.159797
 MO|
 MO|                          0.000000
 MO|
 MO|    1     1  O  1s       -0.000000
 MO|    2     1  O  2s        0.000000
 MO|    3     1  O  1s        0.000000
 MO|    4     1  O  1s        0.000000
 MO|    5     1  O  1py      -0.048747
 MO|    6     1  O  1pz      -0.000000
 MO|    7     1  O  1px      -0.047654
 MO|    8     1  O  1py      -0.031077
 MO|    9     1  O  1pz      -0.000000
 MO|   10     1  O  1px      -0.030381
 MO|   11     1  O  1py      -0.197157
 MO|   12     1  O  1pz      -0.000000
 MO|   13     1  O  1px      -0.192736
 MO|   14     1  O  1d-2      0.000000
 MO|   15     1  O  1d-1     -0.002307
 MO|   16     1  O  1d0       0.000000
 MO|   17     1  O  1d+1     -0.002256
 MO|   18     1  O  1d+2     -0.000000
 MO|   19     1  O  1d-2     -0.000000
 MO|   20     1  O  1d-1     -0.010079
 MO|   21     1  O  1d0      -0.000000
 MO|   22     1  O  1d+1     -0.009853
 MO|   23     1  O  1d+2      0.000000
 MO|   24     1  O  1f-3     -0.000000
 MO|   25     1  O  1f-2      0.000000
 MO|   26     1  O  1f-1     -0.003075
 MO|   27     1  O  1f0       0.000000
 MO|   28     1  O  1f+1     -0.003006
 MO|   29     1  O  1f+2     -0.000000
 MO|   30     1  O  1f+3      0.000000
 MO|   31     1  O  1s       -0.000000
 MO|   32     1  O  1py       0.455943
 MO|   33     1  O  1pz       0.000000
 MO|   34     1  O  1px       0.445718
 MO|   35     1  O  1d-2      0.000000
 MO|   36     1  O  1d-1      0.009330
 MO|   37     1  O  1d0       0.000000
 MO|   38     1  O  1d+1      0.009121
 MO|   39     1  O  1d+2     -0.000000
 MO|   40     1  O  1f-3     -0.000000
 MO|   41     1  O  1f-2     -0.000000
 MO|   42     1  O  1f-1      0.003336
 MO|   43     1  O  1f0      -0.000000
 MO|   44     1  O  1f+1      0.003261
 MO|   45     1  O  1f+2      0.000000
 MO|   46     1  O  1f+3      0.000000
 MO|
 MO|   47     2  O  1s       -0.000000
 MO|   48     2  O  2s        0.000000
 MO|   49     2  O  1s        0.000000
 MO|   50     2  O  1s        0.000000
 MO|   51     2  O  1py      -0.048747
 MO|   52     2  O  1pz       0.000000
 MO|   53     2  O  1px      -0.047654
 MO|   54     2  O  1py      -0.031077
 MO|   55     2  O  1pz       0.000000
 MO|   56     2  O  1px      -0.030381
 MO|   57     2  O  1py      -0.197157
 MO|   58     2  O  1pz       0.000000
 MO|   59     2  O  1px      -0.192736
 MO|   60     2  O  1d-2      0.000000
 MO|   61     2  O  1d-1      0.002307
 MO|   62     2  O  1d0       0.000000
 MO|   63     2  O  1d+1      0.002256
 MO|   64     2  O  1d+2     -0.000000
 MO|   65     2  O  1d-2     -0.000000
 MO|   66     2  O  1d-1      0.010079
 MO|   67     2  O  1d0      -0.000000
 MO|   68     2  O  1d+1      0.009853
 MO|   69     2  O  1d+2      0.000000
 MO|   70     2  O  1f-3     -0.000000
 MO|   71     2  O  1f-2     -0.000000
 MO|   72     2  O  1f-1     -0.003075
 MO|   73     2  O  1f0      -0.000000
 MO|   74     2  O  1f+1     -0.003006
 MO|   75     2  O  1f+2      0.000000
 MO|   76     2  O  1f+3      0.000000
 MO|   77     2  O  1s       -0.000000
 MO|   78     2  O  1py       0.455943
 MO|   79     2  O  1pz      -0.000000
 MO|   80     2  O  1px       0.445718
 MO|   81     2  O  1d-2      0.000000
 MO|   82     2  O  1d-1     -0.009330
 MO|   83     2  O  1d0       0.000000
 MO|   84     2  O  1d+1     -0.009121
 MO|   85     2  O  1d+2     -0.000000
 MO|   86     2  O  1f-3     -0.000000
 MO|   87     2  O  1f-2      0.000000
 MO|   88     2  O  1f-1      0.003336
 MO|   89     2  O  1f0       0.000000
 MO|   90     2  O  1f+1      0.003261
 MO|   91     2  O  1f+2     -0.000000
 MO|   92     2  O  1f+3      0.000000
 MO|
 MO| E(Fermi):           -0.572500 a.u.        -15.578524 eV
 MO| Band gap:            0.657510 a.u.         17.891767 eV


  Integrated absolute spin density  :                               2.0313815043
  Ideal and single determinant S**2 :                    2.000000       2.049796

 The sum of alpha and beta density is written in cube file format to the file:

 o2-ELECTRON_DENSITY-1_0.cube

 The spin density is written in cube file format to the file:

 o2-SPIN_DENSITY-1_0.cube


 LOWDIN POPULATION ANALYSIS

 #  Atom  Element  Kind  Atomic population (alpha,beta) Net charge  Spin moment
       1     O        1         4.500000     3.500000    -0.000000     1.000000
       2     O        2         4.500000     3.500000     0.000000     1.000000
 # Total charge and spin        9.000000     7.000000    -0.000000     2.000000

  
  Eigenvalues of the occupied subspace spin            1
 ---------------------------------------------
     -20.76157671     -20.76095076      -1.70890511      -1.21356831
      -0.84116479      -0.84116479      -0.76348818      -0.56457473
      -0.56457473
 Fermi Energy [eV] :  -15.362860
  
  Eigenvalues of the occupied subspace spin            2
 ---------------------------------------------
     -20.70654391     -20.70540302      -1.57563480      -1.00019707
      -0.70279623      -0.57250023      -0.57250023
 Fermi Energy [eV] :  -15.578524
  
  Lowest eigenvalues of the unoccupied subspace spin            1
 ---------------------------------------------
       0.09867350       0.14164222       0.15130903
  
  Lowest eigenvalues of the unoccupied subspace spin            2
 ---------------------------------------------
       0.08501013       0.08501013       0.10135233

 ENERGY| Total FORCE_EVAL ( QS ) energy [a.u.]:             -149.675971276962628

 -------------------------------------------------------------------------------
 -                                                                             -
 -                                DBCSR STATISTICS                             -
 -                                                                             -
 -------------------------------------------------------------------------------
 COUNTER                                    TOTAL       BLAS       SMM       ACC
 flops    46 x    13 x    46               220064     100.0%      0.0%      0.0%
 flops    46 x    28 x    46               947968     100.0%      0.0%      0.0%
 flops    46 x    32 x    46              2166784     100.0%      0.0%      0.0%
 flops    46 x    46 x    13              2970864     100.0%      0.0%      0.0%
 flops    46 x    46 x    15              3427920     100.0%      0.0%      0.0%
 flops inhomo. stacks                           0       0.0%      0.0%      0.0%
 flops total                         9.733600E+06     100.0%      0.0%      0.0%
 flops max/rank                      9.733600E+06     100.0%      0.0%      0.0%
 matmuls inhomo. stacks                         0       0.0%      0.0%      0.0%
 matmuls total                                136     100.0%      0.0%      0.0%
 number of processed stacks                    41     100.0%      0.0%      0.0%
 average stack size                                     3.3       0.0       0.0
 marketing flops                     8.108512E+06
 -------------------------------------------------------------------------------
 # multiplications                             39
 max memory usage/rank             994.099200E+06
 # max total images/rank                        1
 # max 3D layers                                1
 # MPI messages exchanged                       0
 -------------------------------------------------------------------------------

 -------------------------------------------------------------------------------
 -                                                                             -
 -                                DBM STATISTICS                               -
 -                                                                             -
 -------------------------------------------------------------------------------
    M  x    N  x    K                                          COUNT     PERCENT
 -------------------------------------------------------------------------------

 -------------------------------------------------------------------------------
 -                                                                             -
 -                                GRID STATISTICS                              -
 -                                                                             -
 -------------------------------------------------------------------------------
 LP    KERNEL             BACKEND                              COUNT     PERCENT
 2     collocate ortho    REF                                   4692      12.18%
 3     collocate ortho    REF                                   4648      12.07%
 2     integrate ortho    REF                                   4320      11.22%
 3     integrate ortho    REF                                   4320      11.22%
 1     collocate ortho    REF                                   3912      10.16%
 1     integrate ortho    REF                                   3456       8.97%
 4     collocate ortho    REF                                   2850       7.40%
 4     integrate ortho    REF                                   2700       7.01%
 0     collocate ortho    REF                                   2264       5.88%
 0     integrate ortho    REF                                   1728       4.49%
 5     collocate ortho    REF                                   1368       3.55%
 5     integrate ortho    REF                                   1296       3.37%
 6     collocate ortho    REF                                    456       1.18%
 6     integrate ortho    REF                                    432       1.12%
 2     collocate general  REF                                     36       0.09%
 2     integrate general  REF                                     36       0.09%
 -------------------------------------------------------------------------------

 MEMORY| Estimated peak process memory [MiB]                                 949

 -------------------------------------------------------------------------------
 -                                                                             -
 -                           R E F E R E N C E S                               -
 -                                                                             -
 -------------------------------------------------------------------------------
 
 CP2K version 2023.1 (Development Version), the CP2K developers group (2023).
 CP2K is freely available from https://www.cp2k.org/ .

 Kuehne,Thomas D.; Iannuzzi,Marcella; Del Ben,Mauro;
 Rybkin,Vladimir V.; Seewald,Patrick; Stein,Frederick; Laino,Teodoro;
 Khaliullin,Rustam Z.; Schuett,Ole; Schiffmann,Florian; Golze,Dorothea;
 Wilhelm,Jan; Chulkov,Sergey; Bani-Hashemian,Mohammad Hossein;
 Weber,Valery; Borstnik,Urban; Taillefumier,Mathieu;
 Jakobovits,Alice Shoshana; Lazzaro,Alfio; Pabst,Hans; Mueller,Tiziano;
 Schade,Robert; Guidon,Manuel; Andermatt,Samuel; Holmberg,Nico;
 Schenter,Gregory K.; Hehn,Anna; Bussy,Augustin; Belleflamme,Fabian;
 Tabacchi,Gloria; Gloess,Andreas; Lass,Michael; Bethune,Iain;
 Mundy,Christopher J.; Plessl,Christian; Watkins,Matt;
 VandeVondele,Joost; Krack,Matthias; Hutter,Juerg. 
 The Journal of Chemical Physics, 152 (19), (2020). 
 CP2K: An electronic structure and molecular dynamics software package -
 Quickstep: Efficient and accurate electronic structure calculations.
 https://doi.org/10.1063/5.0007045

 Schuett, Ole; Messmer, Peter; Hutter, Juerg; VandeVondele, Joost. 
 Electronic Structure Calculations on Graphics Processing Units, John
 Wiley & Sons, Ltd, 173-190 (2016). 
 GPU-Accelerated Sparse Matrix-Matrix Multiplication for
 Linear Scaling Density Functional Theory.
 https://doi.org/10.1002/9781118670712.ch8

 Borstnik, U; VandeVondele, J; Weber, V; Hutter, J. 
 PARALLEL COMPUTING, 40 (5-6), 47-58 (2014). 
 Sparse matrix multiplication: The distributed block-compressed sparse
 row library.
 https://doi.org/10.1016/j.parco.2014.03.012

 Hutter, J; Iannuzzi, M; Schiffmann, F; VandeVondele, J. 
 WIREs Comput Mol Sci., 4 (1), 15-25 (2014). 
 CP2K: atomistic simulations of condensed matter systems.
 https://doi.org/10.1002/wcms.1159

 Guidon, M; Hutter, J; VandeVondele, J. 
 JOURNAL OF CHEMICAL THEORY AND COMPUTATION, 5 (11), 3010-3021 (2009). 
 Robust Periodic Hartree-Fock Exchange for Large-Scale Simulations Using
 Gaussian Basis Sets.
 https://doi.org/10.1021/ct900494g

 Guidon, M; Schiffmann, F; Hutter, J; VandeVondele, J. 
 JOURNAL OF CHEMICAL PHYSICS, 128 (21), 214104 (2008). 
 Ab initio molecular dynamics using hybrid density functionals.
 https://doi.org/10.1063/1.2931945

 Genovese, L; Deutsch, T; Goedecker, S. 
 JOURNAL OF CHEMICAL PHYSICS, 127 (5), 054704 (2007). 
 Efficient and accurate three-dimensional Poisson solver for surface
 problems.
 https://doi.org/10.1063/1.2754685

 Genovese, L; Deutsch, T; Neelov, A; Goedecker, S; Beylkin, G. 
 JOURNAL OF CHEMICAL PHYSICS, 125 (7), 074105 (2006). 
 Efficient solution of Poisson's equation with free boundary conditions.
 https://doi.org/10.1063/1.2335442

 Frigo, M; Johnson, SG. 
 PROCEEDINGS OF THE IEEE, 93 (2), 216-231 (2005). 
 The design and implementation of FFTW3.
 https://doi.org/10.1109/JPROC.2004.840301

 Lippert, G; Hutter, J; Parrinello, M. 
 THEORETICAL CHEMISTRY ACCOUNTS, 103 (2), 124-140 (1999). 
 The Gaussian and augmented-plane-wave density functional method for ab
 initio molecular dynamics simulations.
 https://doi.org/10.1007/s002140050523

 Krack, M; Parrinello, M. 
 PHYSICAL CHEMISTRY CHEMICAL PHYSICS, 2 (10), 2105-2112 (2000). 
 All-electron ab-initio molecular dynamics.
 https://doi.org/10.1039/b001167n


 -------------------------------------------------------------------------------
 -                                                                             -
 -                                T I M I N G                                  -
 -                                                                             -
 -------------------------------------------------------------------------------
 SUBROUTINE                       CALLS  ASD         SELF TIME        TOTAL TIME
                                MAXIMUM       AVERAGE  MAXIMUM  AVERAGE  MAXIMUM
 CP2K                                 1  1.0    0.621    0.621   82.196   82.196
 qs_energies                          1  2.0    0.052    0.052   79.594   79.594
 scf_env_do_scf                       1  3.0    0.007    0.007   62.354   62.354
 scf_env_do_scf_inner_loop           18  4.0    0.081    0.081   62.336   62.336
 qs_ks_update_qs_env                 18  5.0    0.004    0.004   47.723   47.723
 rebuild_ks_matrix                   18  6.0    0.008    0.008   47.712   47.712
 qs_ks_build_kohn_sham_matrix        18  7.0    0.231    0.231   47.704   47.704
 pw_transfer                        534  8.6    0.144    0.144   35.583   35.583
 fft_wrap_pw1pw2                    516  9.6    0.027    0.027   35.362   35.362
 fft_wrap_pw1pw2_200                228 10.4    3.419    3.419   32.043   32.043
 pw_poisson_solve                    18  8.0    0.987    0.987   18.919   18.919
 fft3d_s                            517 11.5   16.246   16.246   16.281   16.281
 scf_post_calculation_gpw             1  3.0    0.024    0.024   15.909   15.909
 qs_rho_update_rho_low               19  5.0    0.045    0.045   14.640   14.640
 calculate_rho_elec                  38  6.0    0.562    0.562   14.547   14.547
 hfx_ks_matrix                       18  8.0    0.052    0.052   13.163   13.163
 integrate_four_center               18  9.0    0.153    0.153   13.065   13.065
 density_rs2pw                       38  7.0    0.007    0.007   12.761   12.761
 qs_scf_post_occ_cubes                2  4.0    0.172    0.172   10.938   10.938
 ps_wavelet_solve                    18  9.0    9.164    9.164    9.389    9.389
 pw_gather_s                        312 11.0    9.104    9.104    9.104    9.104
 sum_up_and_integrate                18  8.0    0.028    0.028    8.061    8.061
 integrate_v_rspace                  36  9.0    0.046    0.046    8.033    8.033
 pw_to_cube                          24  5.1    7.949    7.949    8.016    8.016
 integrate_four_center_main          18 10.0    0.008    0.008    7.690    7.690
 integrate_four_center_bin           18 11.0    7.683    7.683    7.683    7.683
 calculate_wavefunction              22  5.0    0.057    0.057    7.435    7.435
 potential_pw2rs                     36 10.0    0.031    0.031    6.726    6.726
 pw_scatter_s                       204 12.5    6.405    6.405    6.405    6.405
 qs_scf_post_unocc_cubes              2  4.0    0.065    0.065    4.058    4.058
 prepare_gapw_den                    18  8.0    0.021    0.021    3.697    3.697
 calc_screening_functions             1 10.0    2.053    2.053    3.564    3.564
 put_rho0_on_grid                    18  9.0    0.272    0.272    3.125    3.125
 fft_wrap_pw1pw2_70                  96 10.7    0.109    0.109    2.781    2.781
 powell_optimize                 782824 11.0    2.396    2.396    2.396    2.396
 -------------------------------------------------------------------------------

 The number of warnings for this run is : 1
 
 -------------------------------------------------------------------------------
  **** **** ******  **  PROGRAM ENDED AT                 2023-04-01 15:46:35.079
 ***** ** ***  *** **   PROGRAM RAN ON                               eu-g5-035-3
 **    ****   ******    PROGRAM RAN BY                                   fcambie
 ***** **    ** ** **   PROGRAM PROCESS ID                                 31570
  **** **  *******  **  PROGRAM STOPPED IN /cluster/home/fcambie/exercise6/tripl
                                           et_mol
